 Gaussian 16, Revision A.03,
 Gaussian 16:  ES64L-G16RevA.03 25-Dec-2016

 ------------------------
 # opt freq b3lyp/cc-pvdz
 ------------------------

 -----
 6-31g
 -----
 Symbolic Z-matrix:
 Charge =  0 Multiplicity = 1

 SCF Done:  E(RB3LYP) =  -315.713969820     A.U. after   11 cycles
 SCF Done:  E(RB3LYP) =  -315.716792218     A.U. after    9 cycles
 SCF Done:  E(RB3LYP) =  -315.716918188     A.U. after    8 cycles
 SCF Done:  E(RB3LYP) =  -315.716928099     A.U. after    7 cycles
 Optimization completed.
    -- Stationary point found.
 Normal termination of Gaussian 16 at Fri Feb 14 11:45:11 2020.

 -------------------------------------------------------------------
 #N Geom=AllCheck Guess=TCheck SCRF=Check GenChk RB3LYP/CC-pVDZ Freq
 -------------------------------------------------------------------

 Structure from the checkpoint file:  "C8H18_opt.chk"
 -----
 6-31g
 -----
 Charge =  0 Multiplicity = 1

                         Standard orientation:
 ---------------------------------------------------------------------
 Center     Atomic      Atomic             Coordinates (Angstroms)
 Number     Number       Type             X           Y           Z
 ---------------------------------------------------------------------
      1          6           0       -4.497733    0.255227    0.000000
      2          1           0       -4.570803    0.905040   -0.888942
      3          1           0       -4.570803    0.905038    0.888944
      4          1           0       -5.377011   -0.409156    0.000000
      5          6           0       -3.190405   -0.540477    0.000000
      6          1           0       -3.163793   -1.206860    0.882121
      7          1           0       -3.163793   -1.206859   -0.882123
      8          6           0       -1.939669    0.344988    0.000000
      9          1           0       -1.966146    1.012380   -0.882513
     10          1           0       -1.966146    1.012379    0.882514
     11          6           0       -0.625281   -0.442261    0.000000
     12          1           0       -0.599805   -1.109536   -0.882376
     13          1           0       -0.599805   -1.109536    0.882376
     14          6           0        0.625326    0.443160    0.000000
     15          1           0        0.599854    1.110445    0.882371
     16          1           0        0.599854    1.110445   -0.882372
     17          6           0        1.939585   -0.344501    0.000000
     18          1           0        1.965788   -1.011982   -0.882483
     19          1           0        1.965788   -1.011981    0.882484
     20          6           0        3.190640    0.540190    0.000000
     21          1           0        3.164353    1.206603    0.882110
     22          1           0        3.164353    1.206602   -0.882112
     23          6           0        4.497529   -0.256088    0.000000
     24          1           0        4.570395   -0.906157   -0.889045
     25          1           0        5.377386    0.407857    0.000000
     26          1           0        4.570395   -0.906156    0.889047
 ---------------------------------------------------------------------

 SCF Done:  E(RB3LYP) =  -315.716928099     A.U. after    1 cycles

 The electronic state is 1-A.
 Alpha  occ. eigenvalues --  -10.18012 -10.18012 -10.17782 -10.17771 -10.17757
 Alpha  occ. eigenvalues --  -10.17753 -10.17582 -10.17576  -0.80786  -0.78442
 Alpha  occ. eigenvalues --   -0.74657  -0.69698  -0.64076  -0.58990  -0.57189
 Alpha  occ. eigenvalues --   -0.56806  -0.47867  -0.45755  -0.43383  -0.42560
 Alpha  occ. eigenvalues --   -0.41554  -0.41016  -0.38822  -0.38166  -0.35374
 Alpha  occ. eigenvalues --   -0.35324  -0.34955  -0.32874  -0.32866  -0.32101
 Alpha  occ. eigenvalues --   -0.31782  -0.31673  -0.30180
 Alpha virt. eigenvalues --    0.05980   0.06481   0.07871   0.07877   0.08315
 Alpha virt. eigenvalues --    0.10462   0.10795   0.10850   0.13679   0.14274
 Alpha virt. eigenvalues --    0.14383   0.15738   0.15740   0.16280   0.16611

 Mulliken charges:
               1
     1  C   -0.003214
     2  H    0.015874
     3  H    0.015874
     4  H    0.011405
     5  C   -0.035643
     6  H    0.003896
     7  H    0.003896
     8  C   -0.008385
     9  H    0.000131
    10  H    0.000131
    11  C   -0.004410
    12  H    0.000210
    13  H    0.000210
    14  C   -0.004334
    15  H    0.000215
    16  H    0.000215
    17  C   -0.008460
    18  H    0.000128
    19  H    0.000128
    20  C   -0.035456
    21  H    0.003894
    22  H    0.003894
    23  C   -0.003462
    24  H    0.015907
    25  H    0.011449
    26  H    0.015907
 Sum of Mulliken charges =   0.00000

 Dipole moment (field-independent basis, Debye):
    X=             -0.0003    Y=              0.0001    Z=              0.0000  Tot=              0.0003
 Quadrupole moment (field-independent basis, Debye-Ang):
   XX=            -56.6177   YY=            -55.8839   ZZ=            -54.4673
   XY=              0.4862   XZ=              0.0000   YZ=              0.0000

  Exact polarizability: 117.467  -0.493  84.463   0.000   0.000  80.621
 Approx polarizability: 123.667   0.093 122.763   0.000   0.000 122.748

                      1                      2                      3
                      A                      A                      A
 Frequencies --     48.6189                70.8439                77.7446
 Red. masses --      2.9419                 1.5052                 3.1601
 Frc consts  --      0.0041                 0.0045                 0.0113
 IR Inten    --      0.0032                 0.0033                 0.0041

                      4                      5                      6
                      A                      A                      A
 Frequencies --    113.3925               140.2489               164.6888
 Red. masses --      2.3411                 1.6784                 2.0381
 Frc consts  --      0.0177                 0.0195                 0.0326
 IR Inten    --      0.0000                 0.0000                 0.0005

                      7                      8                      9
                      A                      A                      A
 Frequencies --    194.2845               252.3013               256.2544
 Red. masses --      2.8432                 1.1098                 1.1267
 Frc consts  --      0.0632                 0.0416                 0.0436
 IR Inten    --      0.0000                 0.0000                 0.0000

                     10                     11                     12
                      A                      A                      A
 Frequencies --    275.0607               337.3871               470.4391
 Red. masses --      3.8788                 2.6171                 3.1840
 Frc consts  --      0.1729                 0.1755                 0.4152
 IR Inten    --      0.0000                 0.0432                 0.1153

                     13                     14                     15
                      A                      A                      A
 Frequencies --    470.8791               738.8334               739.8489
 Red. masses --      2.6119                 1.0587                 1.0749
 Frc consts  --      0.3412                 0.3405                 0.3467
 IR Inten    --      0.0000                 5.0735                 0.0040

                     16                     17                     18
                      A                      A                      A
 Frequencies --    756.7402               804.1839               876.2117
 Red. masses --      1.1126                 1.1643                 1.1945
 Frc consts  --      0.3754                 0.4436                 0.5403
 IR Inten    --      1.3751                 0.0000                 0.8496

                     19                     20                     21
                      A                      A                      A
 Frequencies --    892.7850               909.2562               956.3133
 Red. masses --      1.8753                 1.8404                 1.1792
 Frc consts  --      0.8807                 0.8964                 0.6354
 IR Inten    --      2.6262                 0.0005                 0.0000

                     22                     23                     24
                      A                      A                      A
 Frequencies --   1008.4950              1023.6131              1028.8594
 Red. masses --      3.1272                 3.6741                 1.0990
 Frc consts  --      1.8739                 2.2682                 0.6854
 IR Inten    --      0.0000                 0.4042                 0.2448

                     25                     26                     27
                      A                      A                      A
 Frequencies --   1063.1888              1073.5099              1077.2769
 Red. masses --      2.6584                 2.2411                 1.9772
 Frc consts  --      1.7705                 1.5217                 1.3519
 IR Inten    --      0.0000                 0.1181                 0.0000

                     28                     29                     30
                      A                      A                      A
 Frequencies --   1096.9332              1153.4343              1195.1374
 Red. masses --      1.8369                 2.8998                 1.9272
 Frc consts  --      1.3022                 2.2730                 1.6219
 IR Inten    --      2.6155                 0.0000                 0.0000

                     31                     32                     33
                      A                      A                      A
 Frequencies --   1223.2353              1238.0824              1268.8530
 Red. masses --      1.5252                 1.3198                 1.3195
 Frc consts  --      1.3446                 1.1920                 1.2516
 IR Inten    --      0.0378                 7.9116                 0.0000

                     34                     35                     36
                      A                      A                      A
 Frequencies --   1290.7334              1306.9248              1313.3710
 Red. masses --      1.3228                 1.2005                 1.0240
 Frc consts  --      1.2984                 1.2081                 1.0407
 IR Inten    --      0.0000                 0.2681                 0.0000

                     37                     38                     39
                      A                      A                      A
 Frequencies --   1325.6235              1327.0988              1339.3124
 Red. masses --      1.0696                 1.1253                 1.3771
 Frc consts  --      1.1074                 1.1677                 1.4554
 IR Inten    --      0.5098                 0.0005                 3.6332

                     40                     41                     42
                      A                      A                      A
 Frequencies --   1377.1040              1397.9642              1398.3971
 Red. masses --      1.4427                 1.3422                 1.4367
 Frc consts  --      1.6119                 1.5455                 1.6553
 IR Inten    --      0.0000                 0.3993                 0.1002

                     43                     44                     45
                      A                      A                      A
 Frequencies --   1399.6549              1403.7708              1457.6250
 Red. masses --      1.5161                 1.5765                 1.0724
 Frc consts  --      1.7499                 1.8304                 1.3425
 IR Inten    --      2.6916                 0.0008                 0.2385

                     46                     47                     48
                      A                      A                      A
 Frequencies --   1457.8881              1461.1587              1463.2049
 Red. masses --      1.0713                 1.0647                 1.0630
 Frc consts  --      1.3415                 1.3393                 1.3408
 IR Inten    --      0.0000                 0.0000                 0.9413

                     49                     50                     51
                      A                      A                      A
 Frequencies --   1469.6717              1469.8838              1470.3366
 Red. masses --      1.0375                 1.0375                 1.0756
 Frc consts  --      1.3203                 1.3207                 1.3700
 IR Inten    --      4.9871                 6.3841                 0.0001

                     52                     53                     54
                      A                      A                      A
 Frequencies --   1477.7765              1483.8606              1488.3186
 Red. masses --      1.0877                 1.0924                 1.0965
 Frc consts  --      1.3995                 1.4172                 1.4310
 IR Inten    --      1.4942                 0.0001                 5.6478

                     55                     56                     57
                      A                      A                      A
 Frequencies --   2992.8768              2994.3441              2996.5581
 Red. masses --      1.0583                 1.0588                 1.0587
 Frc consts  --      5.5854                 5.5935                 5.6011
 IR Inten    --      2.0772                 0.0007                 0.0011

                     58                     59                     60
                      A                      A                      A
 Frequencies --   3001.3904              3008.4054              3010.5539
 Red. masses --      1.0595                 1.0602                 1.0602
 Frc consts  --      5.6235                 5.6532                 5.6612
 IR Inten    --     15.0864                 0.0218               178.2514

                     61                     62                     63
                      A                      A                      A
 Frequencies --   3014.1188              3017.0500              3018.9124
 Red. masses --      1.0975                 1.0993                 1.0368
 Frc consts  --      5.8748                 5.8958                 5.5672
 IR Inten    --      0.0004                 0.1676                43.3287

                     64                     65                     66
                      A                      A                      A
 Frequencies --   3020.7189              3025.6696              3037.3765
 Red. masses --      1.0367                 1.1019                 1.1040
 Frc consts  --      5.5735                 5.9436                 6.0011
 IR Inten    --     34.1463                 0.0004                 1.2967

                     67                     68                     69
                      A                      A                      A
 Frequencies --   3048.1802              3057.4592              3087.5123
 Red. masses --      1.1051                 1.1052                 1.1023
 Frc consts  --      6.0496                 6.0871                 6.1913
 IR Inten    --      0.0041               148.6447                58.0276

                     70                     71                     72
                      A                      A                      A
 Frequencies --   3089.4119              3093.8533              3095.7269
 Red. masses --      1.1023                 1.1014                 1.1014
 Frc consts  --      6.1987                 6.2115                 6.2193
 IR Inten    --     68.4881                41.5680                40.4006

 - Thermochemistry -
 -------------------
 Temperature   298.150 Kelvin.  Pressure   1.00000 Atm.
 Atom     1 has atomic number  6 and mass  12.00000

 Molecular mass:   114.14085 amu.
 Principal axes and moments of inertia in atomic units:
                           1         2         3
     Eigenvalues --   169.047653720.918213799.96679
           X            1.00000  -0.00218   0.00000
           Y            0.00218   1.00000   0.00000
           Z            0.00000   0.00000   1.00000
 This molecule is an asymmetric top.
 Rotational symmetry number  1.
 Rotational temperatures (Kelvin)      0.51236     0.02328     0.02279
 Rotational constants (GHZ):          10.67593     0.48503     0.47494
 Zero-point vibrational energy     641119.0 (Joules/Mol)
                                  153.23113 (Kcal/Mol)
 Warning -- explicit consideration of  13 degrees of freedom as
           vibrations may cause significant error
 Vibrational temperatures:     69.95   101.93   111.86   163.15   201.79
          (Kelvin)            236.95   279.53   363.01   368.69   395.75
                              485.42   676.86   677.49  1063.02  1064.48
                             1088.78  1157.04  1260.67  1284.52  1308.22
                             1375.92  1451.00  1472.75  1480.30  1529.69
                             1544.54  1549.96  1578.24  1659.53  1719.54
                             1759.96  1781.32  1825.60  1857.08  1880.37
                             1889.65  1907.28  1909.40  1926.97  1981.35
                             2011.36  2011.98  2013.79  2019.71  2097.20
                             2097.58  2102.28  2105.23  2114.53  2114.83
                             2115.49  2126.19  2134.94  2141.36  4306.08
                             4308.19  4311.38  4318.33  4328.42  4331.52
                             4336.64  4340.86  4343.54  4346.14  4353.26
                             4370.11  4385.65  4399.00  4442.24  4444.97
                             4451.36  4454.06

 Zero-point correction=                           0.244189 (Hartree/Particle)
 Thermal correction to Energy=                    0.255292
 Thermal correction to Enthalpy=                  0.256236
 Thermal correction to Gibbs Free Energy=         0.207155
 Sum of electronic and zero-point Energies=           -315.472739
 Sum of electronic and thermal Energies=              -315.461636
 Sum of electronic and thermal Enthalpies=            -315.460692
 Sum of electronic and thermal Free Energies=         -315.509773

                     E (Thermal)             CV                S
                      KCal/Mol        Cal/Mol-Kelvin    Cal/Mol-Kelvin
 Total                  160.198             39.217            103.300
 Electronic               0.000              0.000              0.000
 Translational            0.889              2.981             40.112
 Rotational               0.889              2.981             29.259
 Vibrational            158.421             33.255             33.929
 Vibration     1          0.595              1.978              4.873
 Vibration     2          0.598              1.968              4.130
 Vibration     3          0.599              1.964              3.947
 Vibration     4          0.607              1.938              3.210
 Vibration     5          0.615              1.913              2.800
 Vibration     6          0.623              1.886              2.495
 Vibration     7          0.635              1.848              2.187
 Vibration     8          0.664              1.759              1.714
 Vibration     9          0.666              1.752              1.687
 Vibration    10          0.677              1.719              1.564
 Vibration    11          0.718              1.601              1.224
 Vibration    12          0.827              1.316              0.736
 Vibration    13          0.828              1.315              0.735

 Optimization completed.
    -- Stationary point found.
 Normal termination of Gaussian 16 at Fri Feb 14 11:55:26 2020.
