 Gaussian 16, Revision A.03,
 Gaussian 16:  ES64L-G16RevA.03 25-Dec-2016

 ------------------------
 # opt freq b3lyp/cc-pvdz
 ------------------------

 -------
 cc-pVDZ
 -------
 Symbolic Z-matrix:
 Charge =  0 Multiplicity = 1

 SCF Done:  E(RB3LYP) =  -235.882015842     A.U. after   11 cycles
 SCF Done:  E(RB3LYP) =  -235.885769907     A.U. after    9 cycles
 SCF Done:  E(RB3LYP) =  -235.885819082     A.U. after    7 cycles
 SCF Done:  E(RB3LYP) =  -235.885821901     A.U. after    6 cycles
 SCF Done:  E(RB3LYP) =  -235.885820640     A.U. after    6 cycles
 Optimization completed.
    -- Stationary point found.
 Normal termination of Gaussian 16 at Tue May 26 17:22:06 2020.

 -------------------------------------------------------------------
 #N Geom=AllCheck Guess=TCheck SCRF=Check GenChk RB3LYP/CC-pVDZ Freq
 -------------------------------------------------------------------

 Structure from the checkpoint file:  "C6H12_opt.chk"
 -------
 cc-pVDZ
 -------
 Charge =  0 Multiplicity = 1

                         Standard orientation:
 ---------------------------------------------------------------------
 Center     Atomic      Atomic             Coordinates (Angstroms)
 Number     Number       Type             X           Y           Z
 ---------------------------------------------------------------------
      1          6           0        0.223552    1.448839   -0.229020
      2          6           0       -1.143067    0.918034    0.229026
      3          6           0       -1.366630   -0.530846   -0.229030
      4          6           0       -0.223557   -1.448834    0.229033
      5          6           0        1.143063   -0.918041   -0.229022
      6          6           0        1.366635    0.530846    0.229013
      7          1           0       -2.333699   -0.906478    0.146893
      8          1           0       -1.196684    0.961072    1.333726
      9          1           0       -1.951894    1.567750   -0.146886
     10          1           0        0.234028    1.516732   -1.333720
     11          1           0        0.381821    2.474174    0.146850
     12          1           0       -0.234037   -1.516691    1.333736
     13          1           0       -0.381824   -2.474182   -0.146802
     14          1           0        1.951892   -1.567750    0.146900
     15          1           0        1.196680   -0.961098   -1.333721
     16          1           0        1.430809    0.555761    1.333719
     17          1           0        2.333690    0.906474   -0.146954
     18          1           0       -1.430762   -0.555750   -1.333740
 ---------------------------------------------------------------------

 SCF Done:  E(RB3LYP) =  -235.885820640     A.U. after    1 cycles

 The electronic state is 1-A.
 Alpha  occ. eigenvalues --  -10.17783 -10.17778 -10.17778 -10.17761 -10.17761
 Alpha  occ. eigenvalues --  -10.17749  -0.82435  -0.73512  -0.73510  -0.60133
 Alpha  occ. eigenvalues --   -0.60132  -0.54380  -0.47366  -0.43576  -0.42978
 Alpha  occ. eigenvalues --   -0.42977  -0.37380  -0.37377  -0.36930  -0.33618
 Alpha  occ. eigenvalues --   -0.33617  -0.31122  -0.29563  -0.29561
 Alpha virt. eigenvalues --    0.05564   0.07436   0.09292   0.09293   0.13177
 Alpha virt. eigenvalues --    0.13178   0.13295   0.13892   0.14644   0.14646
 Alpha virt. eigenvalues --    0.16086   0.16087   0.22411   0.22413   0.22576

 Mulliken charges:
               1
     1  C    0.006297
     2  C    0.006308
     3  C    0.006302
     4  C    0.006299
     5  C    0.006308
     6  C    0.006300
     7  H   -0.007104
     8  H    0.000802
     9  H   -0.007103
    10  H    0.000802
    11  H   -0.007108
    12  H    0.000801
    13  H   -0.007109
    14  H   -0.007103
    15  H    0.000802
    16  H    0.000804
    17  H   -0.007103
    18  H    0.000803
 Sum of Mulliken charges =   0.00000

 Dipole moment (field-independent basis, Debye):
    X=              0.0000    Y=              0.0000    Z=              0.0000  Tot=              0.0000
 Quadrupole moment (field-independent basis, Debye-Ang):
   XX=            -40.5352   YY=            -40.5364   ZZ=            -40.0007
   XY=              0.0001   XZ=              0.0000   YZ=              0.0000

  Exact polarizability:  68.402   0.000  68.398   0.000   0.000  60.147
 Approx polarizability:  89.153   0.000  89.148   0.001   0.001  91.738

                      1                      2                      3
                      A                      A                      A
 Frequencies --    234.1556               234.7012               383.6849
 Red. masses --      1.7541                 1.7541                 1.5350
 Frc consts  --      0.0567                 0.0569                 0.1331
 IR Inten    --      0.0019                 0.0019                 0.0000

                      4                      5                      6
                      A                      A                      A
 Frequencies --    432.8057               432.9481               522.8299
 Red. masses --      2.9727                 2.9700                 1.3059
 Frc consts  --      0.3281                 0.3280                 0.2103
 IR Inten    --      0.0000                 0.0000                 0.7724

                      7                      8                      9
                      A                      A                      A
 Frequencies --    793.4025               793.6301               809.4683
 Red. masses --      1.4497                 1.4487                 3.4696
 Frc consts  --      0.5377                 0.5376                 1.3395
 IR Inten    --      0.0000                 0.0000                 0.0000

                     10                     11                     12
                      A                      A                      A
 Frequencies --    873.1517               873.4006               914.7783
 Red. masses --      2.3553                 2.3528                 1.2980
 Frc consts  --      1.0580                 1.0575                 0.6399
 IR Inten    --      1.3758                 1.3816                 1.1110

                     13                     14                     15
                      A                      A                      A
 Frequencies --    915.1705              1040.8714              1042.5507
 Red. masses --      1.2981                 2.6390                 1.7009
 Frc consts  --      0.6405                 1.6845                 1.0893
 IR Inten    --      1.1053                 1.7521                 0.0000

                     16                     17                     18
                      A                      A                      A
 Frequencies --   1042.8540              1069.4210              1108.6359
 Red. masses --      1.6996                 1.0107                 2.2673
 Frc consts  --      1.0890                 0.6811                 1.6419
 IR Inten    --      0.0000                 0.0000                 0.0000

                     19                     20                     21
                      A                      A                      A
 Frequencies --   1127.4802              1174.6049              1278.1322
 Red. masses --      1.1097                 2.2789                 1.2932
 Frc consts  --      0.8311                 1.8525                 1.2447
 IR Inten    --      0.0000                 0.0000                 2.7620

                     22                     23                     24
                      A                      A                      A
 Frequencies --   1278.2412              1286.5923              1286.7221
 Red. masses --      1.2931                 1.2238                 1.2237
 Frc consts  --      1.2448                 1.1936                 1.1937
 IR Inten    --      2.7548                 0.0000                 0.0000

                     25                     26                     27
                      A                      A                      A
 Frequencies --   1335.9499              1370.7021              1374.7072
 Red. masses --      1.3054                 1.3781                 1.5704
 Frc consts  --      1.3727                 1.5255                 1.7485
 IR Inten    --      0.0000                 0.0003                 0.0000

                     28                     29                     30
                      A                      A                      A
 Frequencies --   1374.9279              1377.5137              1377.6401
 Red. masses --      1.5723                 1.4310                 1.4318
 Frc consts  --      1.7512                 1.5998                 1.6010
 IR Inten    --      0.0000                 2.3470                 2.3523

                     31                     32                     33
                      A                      A                      A
 Frequencies --   1453.3965              1453.5255              1461.3653
 Red. masses --      1.0888                 1.0886                 1.1087
 Frc consts  --      1.3551                 1.3550                 1.3950
 IR Inten    --      0.0000                 0.0000                 3.5744

                     34                     35                     36
                      A                      A                      A
 Frequencies --   1461.5469              1463.6570              1483.7160
 Red. masses --      1.1084                 1.0775                 1.1024
 Frc consts  --      1.3950                 1.3600                 1.4298
 IR Inten    --      3.5640                10.8337                 0.0000

                     37                     38                     39
                      A                      A                      A
 Frequencies --   2999.4556              2999.5771              3001.9916
 Red. masses --      1.0696                 1.0695                 1.0737
 Frc consts  --      5.6694                 5.6697                 5.7009
 IR Inten    --     27.7948                27.8657                 0.0000

                     40                     41                     42
                      A                      A                      A
 Frequencies --   3004.2664              3004.3658              3006.9815
 Red. masses --      1.0618                 1.0618                 1.0597
 Frc consts  --      5.6466                 5.6469                 5.6454
 IR Inten    --      0.0000                 0.0000                78.6172

                     43                     44                     45
                      A                      A                      A
 Frequencies --   3052.3017              3052.3495              3054.4327
 Red. masses --      1.0928                 1.0928                 1.1024
 Frc consts  --      5.9984                 5.9986                 6.0597
 IR Inten    --    117.5331               117.5032                 0.0000

                     46                     47                     48
                      A                      A                      A
 Frequencies --   3054.5052              3056.1842              3061.8650
 Red. masses --      1.1024                 1.0886                 1.1049
 Frc consts  --      6.0601                 5.9908                 6.1029
 IR Inten    --      0.0000                 0.0000               141.4283

 - Thermochemistry -
 -------------------
 Temperature   298.150 Kelvin.  Pressure   1.00000 Atm.
 Atom     1 has atomic number  6 and mass  12.00000

 Molecular mass:    84.09390 amu.
 Principal axes and moments of inertia in atomic units:
                           1         2         3
     Eigenvalues --   421.75427 421.81306 738.83883
           X            0.99997   0.00820   0.00000
           Y           -0.00820   0.99997   0.00000
           Z            0.00000   0.00000   1.00000
 This molecule is an asymmetric top.
 Rotational symmetry number  1.
 Rotational temperatures (Kelvin)      0.20537     0.20534     0.11723
 Rotational constants (GHZ):           4.27913     4.27853     2.44267
 Zero-point vibrational energy     444335.9 (Joules/Mol)
                                  106.19882 (Kcal/Mol)
 Warning -- explicit consideration of   6 degrees of freedom as
           vibrations may cause significant error
 Vibrational temperatures:    336.90   337.68   552.04   622.71   622.92
          (Kelvin)            752.24  1141.53  1141.86  1164.64  1256.27
                             1256.63  1316.16  1316.73  1497.58  1500.00
                             1500.43  1538.66  1595.08  1622.19  1689.99
                             1838.95  1839.10  1851.12  1851.31  1922.13
                             1972.13  1977.90  1978.21  1981.94  1982.12
                             2091.11  2091.30  2102.58  2102.84  2105.88
                             2134.74  4315.55  4315.72  4319.20  4322.47
                             4322.61  4326.38  4391.58  4391.65  4394.65
                             4394.75  4397.17  4405.34

 Zero-point correction=                           0.169239 (Hartree/Particle)
 Thermal correction to Energy=                    0.174958
 Thermal correction to Enthalpy=                  0.175902
 Thermal correction to Gibbs Free Energy=         0.140463
 Sum of electronic and zero-point Energies=           -235.716582
 Sum of electronic and thermal Energies=              -235.710863
 Sum of electronic and thermal Enthalpies=            -235.709919
 Sum of electronic and thermal Free Energies=         -235.745357

                     E (Thermal)             CV                S
                      KCal/Mol        Cal/Mol-Kelvin    Cal/Mol-Kelvin
 Total                  109.788             22.941             74.587
 Electronic               0.000              0.000              0.000
 Translational            0.889              2.981             39.202
 Rotational               0.889              2.981             26.377
 Vibrational            108.010             16.979              9.008
 Vibration     1          0.654              1.789              1.847
 Vibration     2          0.655              1.788              1.843
 Vibration     3          0.753              1.505              1.025
 Vibration     4          0.794              1.399              0.850
 Vibration     5          0.794              1.398              0.849
 Vibration     6          0.878              1.199              0.603

 Optimization completed.
    -- Stationary point found.
 Normal termination of Gaussian 16 at Tue May 26 17:24:58 2020.
