 Gaussian 16, Revision A.03,
 Gaussian 16:  ES64L-G16RevA.03 25-Dec-2016

 -------------------------------------------
 #p opt freq b3lyp/cc-pVDZ geom=connectivity
 -------------------------------------------

 -----
 6-31G
 -----
 Symbolic Z-matrix:
 Charge =  0 Multiplicity = 1

 SCF Done:  E(RB3LYP) =  -195.292384904     A.U. after   12 cycles
 SCF Done:  E(RB3LYP) =  -195.300065246     A.U. after   11 cycles
 SCF Done:  E(RB3LYP) =  -195.300640002     A.U. after   10 cycles
 SCF Done:  E(RB3LYP) =  -195.300665629     A.U. after    8 cycles
 SCF Done:  E(RB3LYP) =  -195.300668843     A.U. after    8 cycles
 SCF Done:  E(RB3LYP) =  -195.300734232     A.U. after   11 cycles
 SCF Done:  E(RB3LYP) =  -195.265319057     A.U. after   12 cycles
 SCF Done:  E(RB3LYP) =  -195.301677727     A.U. after   11 cycles
 SCF Done:  E(RB3LYP) =  -195.301725867     A.U. after   13 cycles
 SCF Done:  E(RB3LYP) =  -195.303624115     A.U. after   11 cycles
 SCF Done:  E(RB3LYP) =  -195.304595456     A.U. after   12 cycles
 SCF Done:  E(RB3LYP) =  -195.306202492     A.U. after   14 cycles
 SCF Done:  E(RB3LYP) =  -195.306825093     A.U. after   11 cycles
 SCF Done:  E(RB3LYP) =  -195.307411713     A.U. after   11 cycles
 SCF Done:  E(RB3LYP) =  -195.307472522     A.U. after   11 cycles
 SCF Done:  E(RB3LYP) =  -195.307489163     A.U. after   10 cycles
 SCF Done:  E(RB3LYP) =  -195.307492762     A.U. after    8 cycles
 SCF Done:  E(RB3LYP) =  -195.307493052     A.U. after    7 cycles
 Optimization completed.
    -- Stationary point found.
 Normal termination of Gaussian 16 at Thu Mar  5 23:15:00 2020.

 -------------------------------------------------------------------
 #P Geom=AllCheck Guess=TCheck SCRF=Check GenChk RB3LYP/CC-pVDZ Freq
 -------------------------------------------------------------------

 Structure from the checkpoint file:  "C5H8_opt.chk"
 -----
 6-31G
 -----
 Charge =  0 Multiplicity = 1

                         Standard orientation:
 ---------------------------------------------------------------------
 Center     Atomic      Atomic             Coordinates (Angstroms)
 Number     Number       Type             X           Y           Z
 ---------------------------------------------------------------------
      1          6           0       -2.378253    0.177239   -0.149886
      2          1           0       -2.596825   -0.465614   -1.009066
      3          1           0       -3.188948    0.815593    0.210746
      4          6           0       -1.176861    0.176683    0.434063
      5          1           0       -0.994420    0.839516    1.289362
      6          6           0       -0.000000   -0.664053    0.000227
      7          1           0       -0.315419   -1.320379   -0.831010
      8          1           0        0.315501   -1.319803    0.831926
      9          6           0        1.176839    0.176393   -0.434103
     10          1           0        0.994356    0.838279   -1.290135
     11          6           0        2.378258    0.177394    0.149771
     12          1           0        2.596919   -0.464822    1.009406
     13          1           0        3.188943    0.815294   -0.211664
 ---------------------------------------------------------------------

 SCF Done:  E(RB3LYP) =  -195.307493052     A.U. after    1 cycles

 The electronic state is 1-A.
 Alpha  occ. eigenvalues --  -10.19594 -10.19361 -10.19358 -10.18337 -10.18337
 Alpha  occ. eigenvalues --   -0.81074  -0.75674  -0.67922  -0.56757  -0.54660
 Alpha  occ. eigenvalues --   -0.48258  -0.43658  -0.42884  -0.42873  -0.36187
 Alpha  occ. eigenvalues --   -0.35382  -0.34792  -0.26799  -0.25628
 Alpha virt. eigenvalues --   -0.00417   0.03162   0.07478   0.08740   0.09677
 Alpha virt. eigenvalues --    0.09734   0.12489   0.15111   0.15648   0.15795
 Alpha virt. eigenvalues --    0.24346   0.25915   0.33023   0.34500   0.40754

 Mulliken charges:
               1
     1  C    0.018482
     2  H    0.007507
     3  H    0.016237
     4  C   -0.084189
     5  H   -0.014016
     6  C    0.089027
     7  H    0.011459
     8  H    0.011456
     9  C   -0.084206
    10  H   -0.014016
    11  C    0.018507
    12  H    0.007512
    13  H    0.016239
 Sum of Mulliken charges =  -0.00000

 Dipole moment (field-independent basis, Debye):
    X=              0.0001    Y=             -0.1034    Z=             -0.0003  Tot=              0.1034
 Quadrupole moment (field-independent basis, Debye-Ang):
   XX=            -31.4886   YY=            -32.4711   ZZ=            -31.5738
   XY=             -0.0005   XZ=              0.9179   YZ=              0.0005

  Exact polarizability:  83.719   0.003  40.117  11.102   0.002  45.043
 Approx polarizability: 112.966   0.007  55.832  22.613   0.004  67.263

                      1                      2                      3
                      A                      A                      A
 Frequencies --     89.6309               104.1641               298.1934
 Red. masses --      2.6810                 2.4318                 1.6120
 Frc consts  --      0.0127                 0.0155                 0.0845
 IR Inten    --      0.0042                 0.0231                 0.0621

                      4                      5                      6
                      A                      A                      A
 Frequencies --    372.0438               452.3865               614.3242
 Red. masses --      2.6638                 1.6920                 1.2720
 Frc consts  --      0.2172                 0.2040                 0.2828
 IR Inten    --      0.4309                 3.1543                 8.9653

                      7                      8                      9
                      A                      A                      A
 Frequencies --    678.8023               893.4747               912.1385
 Red. masses --      1.8249                 1.3547                 1.7413
 Frc consts  --      0.4954                 0.6372                 0.8536
 IR Inten    --      8.3012                 8.7965                 3.2534

                     10                     11                     12
                      A                      A                      A
 Frequencies --    939.3982               940.6858               970.8255
 Red. masses --      1.3494                 1.3668                 2.0721
 Frc consts  --      0.7016                 0.7126                 1.1507
 IR Inten    --     29.1251                30.9844                 2.3380

                     13                     14                     15
                      A                      A                      A
 Frequencies --   1026.1631              1029.4414              1079.3414
 Red. masses --      1.0783                 1.1101                 1.6091
 Frc consts  --      0.6690                 0.6931                 1.1045
 IR Inten    --      7.6655                11.9326                 1.6354

                     16                     17                     18
                      A                      A                      A
 Frequencies --   1164.7690              1251.5678              1289.6607
 Red. masses --      2.0762                 1.2900                 1.3152
 Frc consts  --      1.6596                 1.1906                 1.2888
 IR Inten    --      3.5676                 0.0998                 6.7520

                     19                     20                     21
                      A                      A                      A
 Frequencies --   1309.0853              1320.4749              1425.4074
 Red. masses --      1.2402                 1.2689                 1.1288
 Frc consts  --      1.2523                 1.3036                 1.3512
 IR Inten    --      0.1042                 0.3934                 0.1311

                     22                     23                     24
                      A                      A                      A
 Frequencies --   1431.7939              1446.1537              1706.2959
 Red. masses --      1.2220                 1.1220                 5.1042
 Frc consts  --      1.4759                 1.3825                 8.7557
 IR Inten    --      3.5222                 4.9264                21.8208

                     25                     26                     27
                      A                      A                      A
 Frequencies --   1720.6497              3008.2343              3051.4274
 Red. masses --      4.9179                 1.0582                 1.1023
 Frc consts  --      8.5785                 5.6423                 6.0471
 IR Inten    --      1.0415                22.7156                15.6326

                     28                     29                     30
                      A                      A                      A
 Frequencies --   3126.5587              3126.6199              3137.1106
 Red. masses --      1.0614                 1.0615                 1.0894
 Frc consts  --      6.1131                 6.1140                 6.3169
 IR Inten    --      5.9517                24.8956                10.1282

                     31                     32                     33
                      A                      A                      A
 Frequencies --   3137.8864              3223.1361              3223.2263
 Red. masses --      1.0895                 1.1154                 1.1153
 Frc consts  --      6.3206                 6.8273                 6.8266
 IR Inten    --      3.6682                18.2734                15.2315

 - Thermochemistry -
 -------------------
 Temperature   298.150 Kelvin.  Pressure   1.00000 Atm.
 Atom     1 has atomic number  6 and mass  12.00000

 Molecular mass:    68.06260 amu.
 Principal axes and moments of inertia in atomic units:
                           1         2         3
     Eigenvalues --    90.82544 775.70955 781.30848
           X            0.99995  -0.00000   0.00952
           Y            0.00000   1.00000   0.00011
           Z           -0.00952  -0.00011   0.99995
 This molecule is an asymmetric top.
 Rotational symmetry number  1.
 Rotational temperatures (Kelvin)      0.95363     0.11166     0.11086
 Rotational constants (GHZ):          19.87044     2.32657     2.30990
 Zero-point vibrational energy     296082.2 (Joules/Mol)
                                   70.76533 (Kcal/Mol)
 Warning -- explicit consideration of   6 degrees of freedom as
           vibrations may cause significant error
 Vibrational temperatures:    128.96   149.87   429.03   535.29   650.88
          (Kelvin)            883.88   976.65  1285.51  1312.36  1351.58
                             1353.44  1396.80  1476.42  1481.14  1552.93
                             1675.84  1800.73  1855.53  1883.48  1899.87
                             2050.84  2060.03  2080.69  2454.98  2475.63
                             4328.18  4390.32  4498.42  4498.51  4513.60
                             4514.72  4637.37  4637.50

 Zero-point correction=                           0.112772 (Hartree/Particle)
 Thermal correction to Energy=                    0.118804
 Thermal correction to Enthalpy=                  0.119748
 Thermal correction to Gibbs Free Energy=         0.083523
 Sum of electronic and zero-point Energies=           -195.194721
 Sum of electronic and thermal Energies=              -195.188689
 Sum of electronic and thermal Enthalpies=            -195.187745
 Sum of electronic and thermal Free Energies=         -195.223970

                     E (Thermal)             CV                S
                      KCal/Mol        Cal/Mol-Kelvin    Cal/Mol-Kelvin
 Total                   74.551             20.781             76.243
 Electronic               0.000              0.000              0.000
 Translational            0.889              2.981             38.571
 Rotational               0.889              2.981             25.513
 Vibrational             72.773             14.819             12.160
 Vibration     1          0.602              1.957              3.668
 Vibration     2          0.605              1.946              3.375
 Vibration     3          0.691              1.677              1.427
 Vibration     4          0.744              1.530              1.071
 Vibration     5          0.811              1.356              0.789
 Vibration     6          0.974              1.002              0.426

 Optimization completed.
    -- Stationary point found.
 Normal termination of Gaussian 16 at Thu Mar  5 23:15:20 2020.
