 Gaussian 16, Revision A.03,
 Gaussian 16:  ES64L-G16RevA.03 25-Dec-2016

 ------------------------
 # opt freq b3lyp/cc-pvdz
 ------------------------

 -------
 cc-pVDZ
 -------
 Symbolic Z-matrix:
 Charge =  0 Multiplicity = 1

 SCF Done:  E(RB3LYP) =  -309.264506538     A.U. after   20 cycles
 SCF Done:  E(RB3LYP) =  -309.335882114     A.U. after   16 cycles
 SCF Done:  E(RB3LYP) =  -309.399253441     A.U. after   14 cycles
 SCF Done:  E(RB3LYP) =  -309.451890124     A.U. after   14 cycles
 SCF Done:  E(RB3LYP) =  -309.493103507     A.U. after   14 cycles
 SCF Done:  E(RB3LYP) =  -309.508970641     A.U. after   13 cycles
 SCF Done:  E(RB3LYP) =  -309.511494901     A.U. after   13 cycles
 SCF Done:  E(RB3LYP) =  -309.512751448     A.U. after   12 cycles
 SCF Done:  E(RB3LYP) =  -309.513012074     A.U. after   12 cycles
 SCF Done:  E(RB3LYP) =  -309.513006763     A.U. after   12 cycles
 SCF Done:  E(RB3LYP) =  -309.513357036     A.U. after   12 cycles
 SCF Done:  E(RB3LYP) =  -309.513485559     A.U. after   11 cycles
 SCF Done:  E(RB3LYP) =  -309.513508072     A.U. after    9 cycles
 SCF Done:  E(RB3LYP) =  -309.513525286     A.U. after   11 cycles
 SCF Done:  E(RB3LYP) =  -309.513531048     A.U. after   10 cycles
 SCF Done:  E(RB3LYP) =  -309.513537695     A.U. after    9 cycles
 SCF Done:  E(RB3LYP) =  -309.513543549     A.U. after   10 cycles
 SCF Done:  E(RB3LYP) =  -309.513545778     A.U. after    9 cycles
 SCF Done:  E(RB3LYP) =  -309.513546322     A.U. after    8 cycles
 Optimization completed.
    -- Stationary point found.
 Normal termination of Gaussian 16 at Thu Apr 16 18:51:05 2020.

 -------------------------------------------------------------------
 #N Geom=AllCheck Guess=TCheck SCRF=Check GenChk RB3LYP/CC-pVDZ Freq
 -------------------------------------------------------------------

 Structure from the checkpoint file:  "C8H8_opt.chk"
 -------
 cc-pVDZ
 -------
 Charge =  0 Multiplicity = 1

                         Standard orientation:
 ---------------------------------------------------------------------
 Center     Atomic      Atomic             Coordinates (Angstroms)
 Number     Number       Type             X           Y           Z
 ---------------------------------------------------------------------
      1          6           0        1.834249    0.679236    0.091198
      2          6           0        0.554236    1.300571   -0.382891
      3          6           0       -0.554241   -1.300759    0.382839
      4          6           0       -0.553204    1.300458    0.383306
      5          6           0       -1.834235   -0.679272   -0.091196
      6          6           0       -1.833667    0.680225   -0.091055
      7          1           0        2.745948    1.242281    0.318809
      8          1           0        0.411044    1.278225   -1.473217
      9          1           0       -0.409770    1.276523    1.473583
     10          1           0       -0.410989   -1.278609    1.473168
     11          1           0       -2.746106   -1.242231   -0.318361
     12          1           0       -2.744960    1.244015   -0.318445
     13          6           0        1.833690   -0.680156    0.091083
     14          1           0        2.744894   -1.244010    0.318693
     15          6           0        0.553210   -1.300320   -0.383383
     16          1           0        0.409707   -1.276089   -1.473636
 ---------------------------------------------------------------------

 SCF Done:  E(RB3LYP) =  -309.513546322     A.U. after    1 cycles

 The electronic state is 1-A.
 Alpha  occ. eigenvalues --  -10.20374 -10.20372 -10.20309 -10.20307 -10.19314
 Alpha  occ. eigenvalues --  -10.19305 -10.19238 -10.19232  -0.85020  -0.79226
 Alpha  occ. eigenvalues --   -0.76793  -0.68949  -0.63705  -0.57267  -0.54413
 Alpha  occ. eigenvalues --   -0.50826  -0.48349  -0.47871  -0.43858  -0.43601
 Alpha  occ. eigenvalues --   -0.39701  -0.39494  -0.37277  -0.33584  -0.27246
 Alpha  occ. eigenvalues --   -0.26609  -0.25484  -0.21997
 Alpha virt. eigenvalues --   -0.03382  -0.01216  -0.00476   0.01445   0.08004
 Alpha virt. eigenvalues --    0.08998   0.09193   0.09748   0.13075   0.13169
 Alpha virt. eigenvalues --    0.14359   0.17429   0.19516   0.26110   0.27608

 Mulliken charges:
               1
     1  C    0.003706
     2  C    0.006423
     3  C    0.006423
     4  C    0.006545
     5  C    0.003681
     6  C    0.003669
     7  H   -0.008959
     8  H   -0.001224
     9  H   -0.001206
    10  H   -0.001226
    11  H   -0.008942
    12  H   -0.008939
    13  C    0.003678
    14  H   -0.008949
    15  C    0.006521
    16  H   -0.001202
 Sum of Mulliken charges =   0.00000

 Dipole moment (field-independent basis, Debye):
    X=              0.0000    Y=              0.0002    Z=              0.0004  Tot=              0.0005
 Quadrupole moment (field-independent basis, Debye-Ang):
   XX=            -43.6942   YY=            -50.7058   ZZ=            -47.3302
   XY=             -0.0022   XZ=              0.4521   YZ=             -0.0052

  Exact polarizability:  99.956   0.001  77.784  -1.653  -0.012  58.588
 Approx polarizability: 155.316   0.012 137.431 -16.302  -0.016  98.857

                      1                      2                      3
                      A                      A                      A
 Frequencies --     84.7789               160.3704               294.2812
 Red. masses --      2.4431                 1.8666                 3.3155
 Frc consts  --      0.0103                 0.0283                 0.1692
 IR Inten    --      0.0000                 8.3637                 0.1909

                      4                      5                      6
                      A                      A                      A
 Frequencies --    305.5331               435.1294               484.6637
 Red. masses --      2.3460                 3.2632                 2.5773
 Frc consts  --      0.1290                 0.3640                 0.3567
 IR Inten    --      1.1416                 0.0000                 0.0000

                      7                      8                      9
                      A                      A                      A
 Frequencies --    491.0981               574.9924               576.8009
 Red. masses --      2.3948                 2.6652                 3.1723
 Frc consts  --      0.3403                 0.5192                 0.6218
 IR Inten    --      0.0000                 0.0043                 9.4442

                     10                     11                     12
                      A                      A                      A
 Frequencies --    690.7425               693.5118               770.5039
 Red. masses --      1.9118                 1.4026                 4.4486
 Frc consts  --      0.5374                 0.3975                 1.5560
 IR Inten    --      0.0034                97.1979                 0.1562

                     13                     14                     15
                      A                      A                      A
 Frequencies --    773.4412               850.7219               948.0140
 Red. masses --      1.7732                 2.7352                 1.3672
 Frc consts  --      0.6250                 1.1663                 0.7239
 IR Inten    --     77.9249                 0.0000                 0.2598

                     16                     17                     18
                      A                      A                      A
 Frequencies --    958.6379               995.6749               997.7783
 Red. masses --      1.3354                 1.5328                 2.8651
 Frc consts  --      0.7230                 0.8953                 1.6806
 IR Inten    --      0.0000                38.8804                 0.0020

                     19                     20                     21
                      A                      A                      A
 Frequencies --   1014.5278              1038.0127              1050.1944
 Red. masses --      5.2206                 1.2658                 2.3903
 Frc consts  --      3.1659                 0.8036                 1.5532
 IR Inten    --      0.1707                 0.0000                 0.0000

                     22                     23                     24
                      A                      A                      A
 Frequencies --   1054.4333              1142.4247              1148.8044
 Red. masses --      1.5920                 1.0874                 1.1062
 Frc consts  --      1.0428                 0.8362                 0.8602
 IR Inten    --      3.9319                 0.0000                 1.3338

                     25                     26                     27
                      A                      A                      A
 Frequencies --   1248.9612              1255.8039              1317.7956
 Red. masses --      1.1849                 1.1810                 1.2123
 Frc consts  --      1.0890                 1.0973                 1.2404
 IR Inten    --      0.0000                 0.7304                 7.0819

                     28                     29                     30
                      A                      A                      A
 Frequencies --   1337.4143              1349.2433              1351.5360
 Red. masses --      1.2257                 1.6963                 1.5646
 Frc consts  --      1.2917                 1.8194                 1.6839
 IR Inten    --      0.0000                 0.0000                 2.0196

                     31                     32                     33
                      A                      A                      A
 Frequencies --   1564.1647              1581.1033              1660.4325
 Red. masses --      7.6305                 6.6550                 7.1422
 Frc consts  --     10.9994                 9.8021                11.6017
 IR Inten    --      1.1192                 0.0001                17.3043

                     34                     35                     36
                      A                      A                      A
 Frequencies --   1660.8053              3082.0534              3085.7222
 Red. masses --      7.4592                 1.0878                 1.0874
 Frc consts  --     12.1222                 6.0882                 6.1006
 IR Inten    --      0.3709                11.7950                 0.0049

                     37                     38                     39
                      A                      A                      A
 Frequencies --   3089.0921              3089.4720              3140.2661
 Red. masses --      1.0838                 1.0852                 1.0833
 Frc consts  --      6.0931                 6.1028                 6.2943
 IR Inten    --     50.2937                 0.0112                 0.0001

                     40                     41                     42
                      A                      A                      A
 Frequencies --   3140.9653              3161.7128              3163.1269
 Red. masses --      1.0837                 1.0979                 1.0977
 Frc consts  --      6.2993                 6.4665                 6.4712
 IR Inten    --      2.3189                85.8701                 0.0011

 - Thermochemistry -
 -------------------
 Temperature   298.150 Kelvin.  Pressure   1.00000 Atm.
 Atom     1 has atomic number  6 and mass  12.00000

 Molecular mass:   104.06260 amu.
 Principal axes and moments of inertia in atomic units:
                           1         2         3
     Eigenvalues --   474.12566 799.313781154.89235
           X            0.99998  -0.00002   0.00562
           Y            0.00002   1.00000  -0.00006
           Z           -0.00562   0.00006   0.99998
 This molecule is an asymmetric top.
 Rotational symmetry number  1.
 Warning -- assumption of classical behavior for rotation
           may cause significant error
 Rotational temperatures (Kelvin)      0.18268     0.10836     0.07500
 Rotational constants (GHZ):           3.80646     2.25786     1.56269
 Zero-point vibrational energy     339827.6 (Joules/Mol)
                                   81.22075 (Kcal/Mol)
 Warning -- explicit consideration of   9 degrees of freedom as
           vibrations may cause significant error
 Vibrational temperatures:    121.98   230.74   423.40   439.59   626.05
          (Kelvin)            697.32   706.58   827.29   829.89   993.82
                              997.81  1108.58  1112.81  1224.00  1363.98
                             1379.27  1432.55  1435.58  1459.68  1493.47
                             1511.00  1517.09  1643.69  1652.87  1796.98
                             1806.82  1896.01  1924.24  1941.26  1944.56
                             2250.48  2274.86  2388.99  2389.53  4434.39
                             4439.67  4444.51  4445.06  4518.14  4519.15
                             4549.00  4551.03

 Zero-point correction=                           0.129434 (Hartree/Particle)
 Thermal correction to Energy=                    0.136466
 Thermal correction to Enthalpy=                  0.137411
 Thermal correction to Gibbs Free Energy=         0.098419
 Sum of electronic and zero-point Energies=           -309.384113
 Sum of electronic and thermal Energies=              -309.377080
 Sum of electronic and thermal Enthalpies=            -309.376136
 Sum of electronic and thermal Free Energies=         -309.415127

                     E (Thermal)             CV                S
                      KCal/Mol        Cal/Mol-Kelvin    Cal/Mol-Kelvin
 Total                   85.634             27.454             82.065
 Electronic               0.000              0.000              0.000
 Translational            0.889              2.981             39.837
 Rotational               0.889              2.981             27.573
 Vibrational             83.856             21.493             14.656
 Vibration     1          0.601              1.960              3.777
 Vibration     2          0.622              1.891              2.545
 Vibration     3          0.689              1.684              1.449
 Vibration     4          0.696              1.663              1.386
 Vibration     5          0.796              1.394              0.842
 Vibration     6          0.841              1.284              0.698
 Vibration     7          0.847              1.270              0.681
 Vibration     8          0.931              1.085              0.495
 Vibration     9          0.933              1.081              0.491

 Optimization completed.
    -- Stationary point found.
 Normal termination of Gaussian 16 at Thu Apr 16 18:53:59 2020.
