 Gaussian 16, Revision A.03,
 Gaussian 16:  ES64L-G16RevA.03 25-Dec-2016

 ------------------------
 # opt freq b3lyp/cc-pvdz
 ------------------------

 -------
 cc-pVDZ
 -------
 Symbolic Z-matrix:
 Charge =  0 Multiplicity = 1

 SCF Done:  E(RB3LYP) =  -309.230362154     A.U. after   19 cycles
 SCF Done:  E(RB3LYP) =  -309.304289536     A.U. after   16 cycles
 SCF Done:  E(RB3LYP) =  -309.413799357     A.U. after   15 cycles
 SCF Done:  E(RB3LYP) =  -309.450210719     A.U. after   14 cycles
 SCF Done:  E(RB3LYP) =  -309.521884675     A.U. after   14 cycles
 SCF Done:  E(RB3LYP) =  -309.575364363     A.U. after   13 cycles
 SCF Done:  E(RB3LYP) =  -309.594450358     A.U. after   13 cycles
 SCF Done:  E(RB3LYP) =  -309.600396107     A.U. after   12 cycles
 SCF Done:  E(RB3LYP) =  -309.602199783     A.U. after   11 cycles
 SCF Done:  E(RB3LYP) =  -309.602491387     A.U. after   11 cycles
 SCF Done:  E(RB3LYP) =  -309.602805408     A.U. after   11 cycles
 SCF Done:  E(RB3LYP) =  -309.602883185     A.U. after   11 cycles
 SCF Done:  E(RB3LYP) =  -309.602924751     A.U. after   10 cycles
 SCF Done:  E(RB3LYP) =  -309.602944917     A.U. after    9 cycles
 SCF Done:  E(RB3LYP) =  -309.602945697     A.U. after    9 cycles
 SCF Done:  E(RB3LYP) =  -309.602947649     A.U. after    8 cycles
 SCF Done:  E(RB3LYP) =  -309.602947842     A.U. after    7 cycles
 Optimization completed.
    -- Stationary point found.
 Normal termination of Gaussian 16 at Fri Apr 17 11:56:49 2020.

 -------------------------------------------------------------------
 #N Geom=AllCheck Guess=TCheck SCRF=Check GenChk RB3LYP/CC-pVDZ Freq
 -------------------------------------------------------------------

 Structure from the checkpoint file:  "COT-boat_opt.chk"
 -------
 cc-pVDZ
 -------
 Charge =  0 Multiplicity = 1

                         Standard orientation:
 ---------------------------------------------------------------------
 Center     Atomic      Atomic             Coordinates (Angstroms)
 Number     Number       Type             X           Y           Z
 ---------------------------------------------------------------------
      1          6           0       -1.201894   -1.215806    0.372862
      2          6           0       -0.029600   -1.709216   -0.373031
      3          6           0        0.029622    1.709288   -0.372989
      4          6           0        1.215914   -1.201951   -0.372702
      5          6           0        1.201977    1.215826    0.372781
      6          6           0        1.709332   -0.029657    0.372996
      7          1           0       -1.756084   -1.985219    0.925568
      8          1           0       -0.192675   -2.642830   -0.926551
      9          1           0        1.985106   -1.755525   -0.926340
     10          1           0        0.192731    2.642915   -0.926436
     11          1           0        1.756007    1.985148    0.925793
     12          1           0        2.642798   -0.192903    0.926688
     13          6           0       -1.709420    0.029605    0.372983
     14          1           0       -2.643112    0.192632    0.926382
     15          6           0       -1.215870    1.201925   -0.372738
     16          1           0       -1.985138    1.755693   -0.926081
 ---------------------------------------------------------------------

 SCF Done:  E(RB3LYP) =  -309.602947842     A.U. after    1 cycles

 The electronic state is 1-A.
 Alpha  occ. eigenvalues --  -10.19439 -10.19434 -10.19433 -10.19416 -10.19373
 Alpha  occ. eigenvalues --  -10.19353 -10.19353 -10.19345  -0.83359  -0.78017
 Alpha  occ. eigenvalues --   -0.78015  -0.69721  -0.65936  -0.56505  -0.56504
 Alpha  occ. eigenvalues --   -0.50393  -0.45319  -0.45319  -0.45257  -0.44889
 Alpha  occ. eigenvalues --   -0.42116  -0.36118  -0.36116  -0.33309  -0.31339
 Alpha  occ. eigenvalues --   -0.27241  -0.27239  -0.21068
 Alpha virt. eigenvalues --   -0.05405   0.02219   0.02221   0.06002   0.08715
 Alpha virt. eigenvalues --    0.09017   0.09019   0.11298   0.13509   0.14398
 Alpha virt. eigenvalues --    0.14400   0.15273   0.21026   0.30247   0.30249

 Mulliken charges:
               1
     1  C    0.011117
     2  C    0.011099
     3  C    0.011118
     4  C    0.011057
     5  C    0.011085
     6  C    0.011133
     7  H   -0.011110
     8  H   -0.011118
     9  H   -0.011081
    10  H   -0.011112
    11  H   -0.011099
    12  H   -0.011104
    13  C    0.011122
    14  H   -0.011101
    15  C    0.011082
    16  H   -0.011087
 Sum of Mulliken charges =   0.00000

 Dipole moment (field-independent basis, Debye):
    X=             -0.0003    Y=             -0.0001    Z=             -0.0006  Tot=              0.0006
 Quadrupole moment (field-independent basis, Debye-Ang):
   XX=            -43.9944   YY=            -43.9966   ZZ=            -49.2679
   XY=              0.0007   XZ=              0.0000   YZ=              0.0003

  Exact polarizability:  99.046  -0.001  99.036   0.001   0.000  49.014
 Approx polarizability: 164.421  -0.011 164.391   0.004  -0.002  73.114

                      1                      2                      3
                      A                      A                      A
 Frequencies --    174.8539               232.0179               261.2229
 Red. masses --      2.7361                 3.5932                 5.2586
 Frc consts  --      0.0493                 0.1140                 0.2114
 IR Inten    --      0.0000                 0.0000                 0.0000

                      4                      5                      6
                      A                      A                      A
 Frequencies --    288.9761               359.0751               359.1523
 Red. masses --      3.7632                 2.2434                 2.2437
 Frc consts  --      0.1852                 0.1704                 0.1705
 IR Inten    --      1.1277                 0.8514                 0.8475

                      7                      8                      9
                      A                      A                      A
 Frequencies --    647.1509               647.1885               666.5391
 Red. masses --      2.3173                 2.3173                 3.6089
 Frc consts  --      0.5718                 0.5719                 0.9447
 IR Inten    --     17.2649                17.2267                 0.0009

                     10                     11                     12
                      A                      A                      A
 Frequencies --    680.9841               778.2449               813.8289
 Red. masses --      1.2385                 1.9243                 2.4543
 Frc consts  --      0.3384                 0.6867                 0.9577
 IR Inten    --     71.9390                 0.0000                15.5397

                     13                     14                     15
                      A                      A                      A
 Frequencies --    813.8819               889.9092               934.1117
 Red. masses --      2.4545                 2.7737                 3.9270
 Frc consts  --      0.9580                 1.2942                 2.0189
 IR Inten    --     15.5845                 0.0000                 0.0000

                     16                     17                     18
                      A                      A                      A
 Frequencies --    957.8733               957.9728               977.7612
 Red. masses --      2.4791                 2.4777                 1.3568
 Frc consts  --      1.3401                 1.3397                 0.7643
 IR Inten    --      0.8014                 0.8058                 0.0000

                     19                     20                     21
                      A                      A                      A
 Frequencies --    996.2239               996.2458              1004.7004
 Red. masses --      1.3048                 1.3048                 1.3909
 Frc consts  --      0.7630                 0.7630                 0.8272
 IR Inten    --      0.7324                 0.7345                 0.0000

                     22                     23                     24
                      A                      A                      A
 Frequencies --   1046.4939              1229.4515              1230.1096
 Red. masses --      1.7406                 1.0229                 1.1218
 Frc consts  --      1.1231                 0.9110                 1.0002
 IR Inten    --      0.0000                 0.0000                 0.6740

                     25                     26                     27
                      A                      A                      A
 Frequencies --   1244.2407              1244.2631              1369.8140
 Red. masses --      1.0708                 1.0709                 1.2302
 Frc consts  --      0.9767                 0.9768                 1.3600
 IR Inten    --      1.1320                 1.1304                 0.0000

                     28                     29                     30
                      A                      A                      A
 Frequencies --   1419.5857              1419.6190              1463.5741
 Red. masses --      1.4517                 1.4518                 1.9078
 Frc consts  --      1.7236                 1.7238                 2.4077
 IR Inten    --      0.0507                 0.0506                 0.0000

                     31                     32                     33
                      A                      A                      A
 Frequencies --   1706.2406              1706.7067              1706.7576
 Red. masses --      5.1979                 7.6459                 7.6469
 Frc consts  --      8.9158                13.1219                13.1244
 IR Inten    --      0.5433                 1.4662                 1.4651

                     34                     35                     36
                      A                      A                      A
 Frequencies --   1735.9161              3108.7097              3112.5829
 Red. masses --     11.0430                 1.0799                 1.0814
 Frc consts  --     19.6063                 6.1491                 6.1725
 IR Inten    --      0.0000                 0.0003                 1.0562

                     37                     38                     39
                      A                      A                      A
 Frequencies --   3112.5927              3118.7311              3129.6834
 Red. masses --      1.0814                 1.0825                 1.0918
 Frc consts  --      6.1726                 6.2037                 6.3010
 IR Inten    --      1.0563                 0.0065                34.6725

                     40                     41                     42
                      A                      A                      A
 Frequencies --   3137.4473              3137.4564              3144.2451
 Red. masses --      1.0940                 1.0940                 1.0955
 Frc consts  --      6.3451                 6.3452                 6.3809
 IR Inten    --     70.9522                70.9281                 0.0011

 - Thermochemistry -
 -------------------
 Temperature   298.150 Kelvin.  Pressure   1.00000 Atm.
 Atom     1 has atomic number  6 and mass  12.00000

 Molecular mass:   104.06260 amu.
 Principal axes and moments of inertia in atomic units:
                           1         2         3
     Eigenvalues --   674.43714 674.501971204.20325
           X            0.99624   0.08661   0.00000
           Y           -0.08661   0.99624   0.00000
           Z            0.00000   0.00000   1.00000
 This molecule is an asymmetric top.
 Rotational symmetry number  1.
 Warning -- assumption of classical behavior for rotation
           may cause significant error
 Rotational temperatures (Kelvin)      0.12842     0.12841     0.07193
 Rotational constants (GHZ):           2.67592     2.67566     1.49870
 Zero-point vibrational energy     346690.6 (Joules/Mol)
                                   82.86103 (Kcal/Mol)
 Warning -- explicit consideration of   6 degrees of freedom as
           vibrations may cause significant error
 Vibrational temperatures:    251.58   333.82   375.84   415.77   516.63
          (Kelvin)            516.74   931.11   931.16   959.00   979.78
                             1119.72  1170.92  1170.99  1280.38  1343.98
                             1378.17  1378.31  1406.78  1433.34  1433.38
                             1445.54  1505.67  1768.91  1769.85  1790.18
                             1790.22  1970.86  2042.47  2042.52  2105.76
                             2454.90  2455.57  2455.64  2497.60  4472.74
                             4478.31  4478.33  4487.16  4502.92  4514.09
                             4514.10  4523.87

 Zero-point correction=                           0.132047 (Hartree/Particle)
 Thermal correction to Energy=                    0.138820
 Thermal correction to Enthalpy=                  0.139764
 Thermal correction to Gibbs Free Energy=         0.101521
 Sum of electronic and zero-point Energies=           -309.470900
 Sum of electronic and thermal Energies=              -309.464128
 Sum of electronic and thermal Enthalpies=            -309.463184
 Sum of electronic and thermal Free Energies=         -309.501427

                     E (Thermal)             CV                S
                      KCal/Mol        Cal/Mol-Kelvin    Cal/Mol-Kelvin
 Total                   87.111             26.704             80.489
 Electronic               0.000              0.000              0.000
 Translational            0.889              2.981             39.837
 Rotational               0.889              2.981             27.796
 Vibrational             85.333             20.743             12.856
 Vibration     1          0.627              1.873              2.383
 Vibration     2          0.653              1.792              1.863
 Vibration     3          0.669              1.744              1.654
 Vibration     4          0.686              1.694              1.480
 Vibration     5          0.734              1.557              1.126
 Vibration     6          0.734              1.556              1.126

 Optimization completed.
    -- Stationary point found.
 Normal termination of Gaussian 16 at Fri Apr 17 11:59:34 2020.
