 Gaussian 16, Revision A.03,
 Gaussian 16:  ES64L-G16RevA.03 25-Dec-2016

 -------------------------------------------
 #p opt freq b3lyp/cc-pVDZ geom=connectivity
 -------------------------------------------

 -------
 cc-pVDZ
 -------
 Symbolic Z-matrix:
 Charge =  0 Multiplicity = 1

 SCF Done:  E(RB3LYP) =  -465.611907696     A.U. after   14 cycles
 SCF Done:  E(RB3LYP) =  -465.640240458     A.U. after   12 cycles
 SCF Done:  E(RB3LYP) =  -465.648198942     A.U. after   13 cycles
 SCF Done:  E(RB3LYP) =  -465.648299018     A.U. after   10 cycles
 SCF Done:  E(RB3LYP) =  -465.648303792     A.U. after    8 cycles
 SCF Done:  E(RB3LYP) =  -465.648304044     A.U. after    7 cycles
 Optimization completed.
    -- Stationary point found.
 Normal termination of Gaussian 16 at Thu Mar  5 11:34:16 2020.

 -------------------------------------------------------------------
 #P Geom=AllCheck Guess=TCheck SCRF=Check GenChk RB3LYP/CC-pVDZ Freq
 -------------------------------------------------------------------

 Structure from the checkpoint file:  "C12H14_opt.chk"
 -------
 cc-pVDZ
 -------
 Charge =  0 Multiplicity = 1

                         Standard orientation:
 ---------------------------------------------------------------------
 Center     Atomic      Atomic             Coordinates (Angstroms)
 Number     Number       Type             X           Y           Z
 ---------------------------------------------------------------------
      1          6           0       -6.791709   -0.225998    0.000000
      2          1           0       -6.864038   -1.317693    0.000000
      3          1           0       -7.727541    0.336096    0.000000
      4          6           0       -5.596760    0.396222    0.000000
      5          1           0       -5.566952    1.492629    0.000000
      6          6           0       -4.317492   -0.280962    0.000000
      7          1           0       -4.335754   -1.377795   -0.000000
      8          6           0       -3.115247    0.355382    0.000000
      9          1           0       -3.102384    1.452541    0.000001
     10          6           0       -1.840445   -0.309893    0.000000
     11          1           0       -1.850794   -1.406820    0.000000
     12          6           0       -0.636935    0.331507    0.000000
     13          1           0       -0.627460    1.428534    0.000000
     14          6           0        0.636928   -0.331296    0.000000
     15          1           0        0.627441   -1.428325    0.000000
     16          6           0        1.840456    0.310069   -0.000000
     17          1           0        1.850855    1.406994   -0.000001
     18          6           0        3.115221   -0.355278   -0.000000
     19          1           0        3.102283   -1.452438   -0.000001
     20          6           0        4.317519    0.280964    0.000000
     21          1           0        4.335892    1.377795    0.000001
     22          6           0        5.596714   -0.396359    0.000000
     23          1           0        5.566772   -1.492763    0.000002
     24          6           0        6.791742    0.225706   -0.000001
     25          1           0        6.864227    1.317390   -0.000003
     26          1           0        7.727496   -0.336519   -0.000001
 ---------------------------------------------------------------------

 SCF Done:  E(RB3LYP) =  -465.648304044     A.U. after    1 cycles

 The electronic state is 1-A.
 Alpha  occ. eigenvalues --  -10.19879 -10.19861 -10.19826 -10.19818 -10.19799
 Alpha  occ. eigenvalues --  -10.19791 -10.19785 -10.19785 -10.19691 -10.19691
 Alpha  occ. eigenvalues --  -10.18934 -10.18934  -0.83436  -0.82146  -0.80151
 Alpha  occ. eigenvalues --   -0.77489  -0.74236  -0.70645  -0.64536  -0.60057
 Alpha  occ. eigenvalues --   -0.56719  -0.56037  -0.55599  -0.54670  -0.49036
 Alpha  occ. eigenvalues --   -0.48013  -0.46693  -0.44992  -0.43166  -0.41708
 Alpha  occ. eigenvalues --   -0.39823  -0.39060  -0.37865  -0.36983  -0.35931
 Alpha  occ. eigenvalues --   -0.35842  -0.35184  -0.34865  -0.34208  -0.31634
 Alpha  occ. eigenvalues --   -0.28155  -0.23844  -0.18983
 Alpha virt. eigenvalues --   -0.08128  -0.02635   0.02524   0.05273   0.06438
 Alpha virt. eigenvalues --    0.06764   0.08499   0.08505   0.08522   0.08950
 Alpha virt. eigenvalues --    0.09042   0.10427   0.10429   0.11266   0.12232

 Mulliken charges:
               1
     1  C    0.026063
     2  H    0.008334
     3  H    0.017115
     4  C   -0.024405
     5  H   -0.027022
     6  C    0.028019
     7  H   -0.032060
     8  C    0.037037
     9  H   -0.032286
    10  C    0.030414
    11  H   -0.032555
    12  C    0.034198
    13  H   -0.032848
    14  C    0.034199
    15  H   -0.032848
    16  C    0.030413
    17  H   -0.032556
    18  C    0.037037
    19  H   -0.032286
    20  C    0.028017
    21  H   -0.032061
    22  C   -0.024406
    23  H   -0.027023
    24  C    0.026062
    25  H    0.008332
    26  H    0.017114
 Sum of Mulliken charges =  -0.00000

 Dipole moment (field-independent basis, Debye):
    X=             -0.0002    Y=              0.0000    Z=              0.0000  Tot=              0.0002
 Quadrupole moment (field-independent basis, Debye-Ang):
   XX=            -68.3547   YY=            -66.0828   ZZ=            -80.4293
   XY=             -0.2056   XZ=             -0.0000   YZ=             -0.0000

  Exact polarizability: 622.930  37.462 117.493  -0.000  -0.000  50.744
 Approx polarizability:1014.430 110.076 187.328  -0.000  -0.000  79.241

                      1                      2                      3
                      A                      A                      A
 Frequencies --     29.2556                40.4133                78.9207
 Red. masses --      4.7992                 4.4079                 4.4435
 Frc consts  --      0.0024                 0.0042                 0.0163
 IR Inten    --      0.0579                 0.9016                 0.0000

                      4                      5                      6
                      A                      A                      A
 Frequencies --    108.1641               115.8276               153.4801
 Red. masses --      3.9176                 1.7762                 3.0132
 Frc consts  --      0.0270                 0.0140                 0.0418
 IR Inten    --      0.0000                 0.0771                 0.4982

                      7                      8                      9
                      A                      A                      A
 Frequencies --    201.3353               205.9958               235.5856
 Red. masses --      3.4938                 2.7076                 5.3959
 Frc consts  --      0.0834                 0.0677                 0.1764
 IR Inten    --      3.8592                 0.0000                 0.0000

                     10                     11                     12
                      A                      A                      A
 Frequencies --    253.4368               278.0611               311.8731
 Red. masses --      1.8672                 3.0914                 3.1609
 Frc consts  --      0.0707                 0.1408                 0.1811
 IR Inten    --      0.0000                 0.0187                 0.0000

                     13                     14                     15
                      A                      A                      A
 Frequencies --    345.5677               414.6544               418.4372
 Red. masses --      1.8632                 3.1298                 2.6145
 Frc consts  --      0.1311                 0.3171                 0.2697
 IR Inten    --      0.4858                16.8459                 0.0000

                     16                     17                     18
                      A                      A                      A
 Frequencies --    453.1415               517.9146               590.0181
 Red. masses --      4.0605                 2.8308                 3.5887
 Frc consts  --      0.4912                 0.4474                 0.7361
 IR Inten    --      2.5750                 0.0000                 0.0000

                     19                     20                     21
                      A                      A                      A
 Frequencies --    603.0512               659.9975               665.4286
 Red. masses --      2.9349                 1.3316                 1.4098
 Frc consts  --      0.6289                 0.3417                 0.3678
 IR Inten    --      4.1241                 7.3073                 0.0000

                     22                     23                     24
                      A                      A                      A
 Frequencies --    850.9905               885.1424               907.4260
 Red. masses --      1.5179                 1.7908                 1.7025
 Frc consts  --      0.6476                 0.8266                 0.8259
 IR Inten    --      0.9413                 0.0000                19.8520

                     25                     26                     27
                      A                      A                      A
 Frequencies --    915.1768               919.6028               926.5254
 Red. masses --      1.4141                 1.5949                 2.1442
 Frc consts  --      0.6978                 0.7947                 1.0845
 IR Inten    --      0.0000                40.4883                 0.0000

                     28                     29                     30
                      A                      A                      A
 Frequencies --    938.5460               958.4415               961.3992
 Red. masses --      1.1758                 1.4829                 1.4583
 Frc consts  --      0.6102                 0.8026                 0.7942
 IR Inten    --      0.0000                 0.0000                 1.8689

                     31                     32                     33
                      A                      A                      A
 Frequencies --    963.1597               992.8392              1022.9923
 Red. masses --      1.1508                 1.1192                 1.1017
 Frc consts  --      0.6290                 0.6500                 0.6793
 IR Inten    --      2.9129                 0.0000                 1.9590

                     34                     35                     36
                      A                      A                      A
 Frequencies --   1045.7636              1054.9607              1152.5861
 Red. masses --      1.0972                 1.0906                 2.0491
 Frc consts  --      0.7070                 0.7151                 1.6038
 IR Inten    --      0.0000               120.3406                 0.0000

                     37                     38                     39
                      A                      A                      A
 Frequencies --   1164.4169              1169.9662              1197.5673
 Red. masses --      2.6910                 1.5283                 1.6609
 Frc consts  --      2.1498                 1.2325                 1.4035
 IR Inten    --      4.4145                20.6895                 0.0000

                     40                     41                     42
                      A                      A                      A
 Frequencies --   1205.8768              1226.6343              1254.1179
 Red. masses --      2.7200                 1.4176                 1.3009
 Frc consts  --      2.3304                 1.2567                 1.2055
 IR Inten    --      0.0000                32.0149                 0.0000

                     43                     44                     45
                      A                      A                      A
 Frequencies --   1287.1123              1304.6428              1306.4179
 Red. masses --      1.2962                 1.3993                 1.6687
 Frc consts  --      1.2652                 1.4033                 1.6780
 IR Inten    --      7.3284                 0.0000                20.5504

                     46                     47                     48
                      A                      A                      A
 Frequencies --   1312.3570              1313.1309              1314.4902
 Red. masses --      2.0172                 1.3293                 1.4274
 Frc consts  --      2.0469                 1.3505                 1.4531
 IR Inten    --      0.0000                 1.6508                 0.0000

                     49                     50                     51
                      A                      A                      A
 Frequencies --   1320.3276              1358.6019              1433.3194
 Red. masses --      1.2769                 1.5053                 1.2729
 Frc consts  --      1.3115                 1.6370                 1.5407
 IR Inten    --      1.5130                 0.0000                 1.3487

                     52                     53                     54
                      A                      A                      A
 Frequencies --   1443.4950              1607.4462              1631.5626
 Red. masses --      1.3180                 5.0190                 4.2074
 Frc consts  --      1.6180                 7.6408                 6.5989
 IR Inten    --      0.0000                 4.6994                 0.0000

                     55                     56                     57
                      A                      A                      A
 Frequencies --   1648.8326              1680.1075              1685.0043
 Red. masses --      4.7781                 5.0488                 4.9149
 Frc consts  --      7.6535                 8.3967                 8.2219
 IR Inten    --      0.0000                13.8534                20.1475

                     58                     59                     60
                      A                      A                      A
 Frequencies --   1696.1555              3127.5471              3128.1325
 Red. masses --      5.1470                 1.0885                 1.0877
 Frc consts  --      8.7244                 6.2731                 6.2708
 IR Inten    --      0.0000                 0.0000                 1.9831

                     61                     62                     63
                      A                      A                      A
 Frequencies --   3129.3534              3129.7300              3131.3397
 Red. masses --      1.0838                 1.0859                 1.0883
 Frc consts  --      6.2536                 6.2667                 6.2870
 IR Inten    --      0.0001                12.3930                 0.0000

                     64                     65                     66
                      A                      A                      A
 Frequencies --   3132.4924              3136.1901              3139.0690
 Red. masses --      1.0864                 1.0826                 1.0759
 Frc consts  --      6.2807                 6.2740                 6.2461
 IR Inten    --      1.4103                 0.0000                 9.5720

                     67                     68                     69
                      A                      A                      A
 Frequencies --   3140.9515              3142.4621              3143.7005
 Red. masses --      1.0735                 1.0800                 1.0864
 Frc consts  --      6.2396                 6.2836                 6.3258
 IR Inten    --      0.0000                13.3908                 0.0003

                     70                     71                     72
                      A                      A                      A
 Frequencies --   3144.4207              3237.6988              3237.7038
 Red. masses --      1.0861                 1.1158                 1.1158
 Frc consts  --      6.3271                 6.8915                 6.8915
 IR Inten    --    147.3983                 4.4059                18.4700

 - Thermochemistry -
 -------------------
 Temperature   298.150 Kelvin.  Pressure   1.00000 Atm.
 Atom     1 has atomic number  6 and mass  12.00000

 Molecular mass:   158.10955 amu.
 Principal axes and moments of inertia in atomic units:
                           1         2         3
     Eigenvalues --   140.19010********************
           X            1.00000   0.00089   0.00000
           Y           -0.00089   1.00000   0.00000
           Z           -0.00000  -0.00000   1.00000
 This molecule is an asymmetric top.
 Rotational symmetry number  1.
 Rotational temperatures (Kelvin)      0.61783     0.00816     0.00805
 Rotational constants (GHZ):          12.87353     0.16999     0.16778
 Zero-point vibrational energy     573241.5 (Joules/Mol)
                                  137.00800 (Kcal/Mol)
 Warning -- explicit consideration of  19 degrees of freedom as
           vibrations may cause significant error
 Vibrational temperatures:     42.09    58.15   113.55   155.62   166.65
          (Kelvin)            220.82   289.68   296.38   338.96   364.64
                              400.07   448.72   497.19   596.60   602.04
                              651.97   745.16   848.90   867.66   949.59
                              957.40  1224.39  1273.52  1305.58  1316.74
                             1323.10  1333.06  1350.36  1378.98  1383.24
                             1385.77  1428.47  1471.86  1504.62  1517.85
                             1658.31  1675.34  1683.32  1723.03  1734.99
                             1764.85  1804.40  1851.87  1877.09  1879.64
                             1888.19  1889.30  1891.26  1899.66  1954.73
                             2062.23  2076.87  2312.76  2347.45  2372.30
                             2417.30  2424.35  2440.39  4499.84  4500.68
                             4502.44  4502.98  4505.30  4506.96  4512.28
                             4516.42  4519.13  4521.30  4523.08  4524.12
                             4658.33  4658.33

 Zero-point correction=                           0.218336 (Hartree/Particle)
 Thermal correction to Energy=                    0.231564
 Thermal correction to Enthalpy=                  0.232508
 Thermal correction to Gibbs Free Energy=         0.177767
 Sum of electronic and zero-point Energies=           -465.429968
 Sum of electronic and thermal Energies=              -465.416740
 Sum of electronic and thermal Enthalpies=            -465.415796
 Sum of electronic and thermal Free Energies=         -465.470537

                     E (Thermal)             CV                S
                      KCal/Mol        Cal/Mol-Kelvin    Cal/Mol-Kelvin
 Total                  145.309             48.283            115.213
 Electronic               0.000              0.000              0.000
 Translational            0.889              2.981             41.084
 Rotational               0.889              2.981             31.149
 Vibrational            143.531             42.322             42.980
 Vibration     1          0.593              1.984              5.879
 Vibration     2          0.594              1.981              5.239
 Vibration     3          0.600              1.963              3.918
 Vibration     4          0.606              1.943              3.302
 Vibration     5          0.608              1.936              3.169
 Vibration     6          0.619              1.899              2.629
 Vibration     7          0.638              1.838              2.121
 Vibration     8          0.640              1.831              2.079
 Vibration     9          0.655              1.786              1.836
 Vibration    10          0.665              1.757              1.707
 Vibration    11          0.679              1.714              1.546
 Vibration    12          0.700              1.651              1.352
 Vibration    13          0.724              1.584              1.186
 Vibration    14          0.778              1.438              0.910
 Vibration    15          0.781              1.430              0.897
 Vibration    16          0.812              1.354              0.786
 Vibration    17          0.873              1.210              0.615
 Vibration    18          0.947              1.053              0.467
 Vibration    19          0.961              1.025              0.444

 Optimization completed.
    -- Stationary point found.
 Normal termination of Gaussian 16 at Thu Mar  5 11:35:40 2020.
