 Gaussian 16, Revision A.03,
 Gaussian 16:  ES64L-G16RevA.03 25-Dec-2016

 ----------------------
 # opt freq b3lyp/6-31G
 ----------------------

 -----
 6-31G
 -----
 Symbolic Z-matrix:
 Charge =  0 Multiplicity = 1

 SCF Done:  E(RB3LYP) =  -539.407930473     A.U. after   12 cycles
 SCF Done:  E(RB3LYP) =  -539.410305286     A.U. after   11 cycles
 SCF Done:  E(RB3LYP) =  -539.410365278     A.U. after    9 cycles
 SCF Done:  E(RB3LYP) =  -539.410374355     A.U. after    8 cycles
 Optimization completed.
    -- Stationary point found.
 Normal termination of Gaussian 16 at Sat Jun 20 13:38:09 2020.

 -----------------------------------------------------------------
 #N Geom=AllCheck Guess=TCheck SCRF=Check GenChk RB3LYP/6-31G Freq
 -----------------------------------------------------------------

 Structure from the checkpoint file:  "anthracene_opt.chk"
 -----
 6-31G
 -----
 Charge =  0 Multiplicity = 1

                         Standard orientation:
 ---------------------------------------------------------------------
 Center     Atomic      Atomic             Coordinates (Angstroms)
 Number     Number       Type             X           Y           Z
 ---------------------------------------------------------------------
      1          6           0        3.669543    0.714412   -0.000033
      2          6           0        2.484790    1.410184    0.000060
      3          6           0        1.226584    0.724552    0.000064
      4          6           0        1.226585   -0.724553    0.000029
      5          6           0        2.484791   -1.410184   -0.000038
      6          6           0        3.669544   -0.714408   -0.000091
      7          6           0        0.000000    1.407007    0.000051
      8          6           0        0.000001   -1.407009    0.000037
      9          6           0       -1.226583   -0.724554    0.000040
     10          6           0       -1.226584    0.724551    0.000017
     11          6           0       -2.484790    1.410185   -0.000056
     12          1           0       -2.481989    2.496604   -0.000117
     13          6           0       -3.669543    0.714412   -0.000084
     14          6           0       -3.669543   -0.714409   -0.000014
     15          6           0       -2.484792   -1.410185    0.000047
     16          1           0       -0.000006    2.494274    0.000072
     17          1           0        4.615757    1.246097   -0.000067
     18          1           0        2.481987    2.496603    0.000145
     19          1           0        2.481990   -2.496603   -0.000047
     20          1           0        4.615752   -1.246104   -0.000176
     21          1           0       -0.000006   -2.494276    0.000061
     22          1           0       -4.615754    1.246103   -0.000130
     23          1           0       -4.615754   -1.246100   -0.000032
     24          1           0       -2.481995   -2.496603    0.000120
 ---------------------------------------------------------------------

 SCF Done:  E(RB3LYP) =  -539.410374355     A.U. after    2 cycles

 The electronic state is 1-A.
 Alpha  occ. eigenvalues --  -10.19724 -10.19723 -10.19697 -10.19695 -10.18855
 Alpha  occ. eigenvalues --  -10.18855 -10.18832 -10.18832 -10.18783 -10.18783
 Alpha  occ. eigenvalues --  -10.18776 -10.18775 -10.18774 -10.18773  -0.88211
 Alpha  occ. eigenvalues --   -0.85090  -0.80262  -0.78495  -0.75281  -0.73975
 Alpha  occ. eigenvalues --   -0.70500  -0.64638  -0.61759  -0.60184  -0.59249
 Alpha  occ. eigenvalues --   -0.54119  -0.52343  -0.50553  -0.46593  -0.46494
 Alpha  occ. eigenvalues --   -0.45260  -0.44729  -0.42670  -0.41741  -0.40951
 Alpha  occ. eigenvalues --   -0.39881  -0.39020  -0.37948  -0.36012  -0.34738
 Alpha  occ. eigenvalues --   -0.33683  -0.32614  -0.30188  -0.29765  -0.25555
 Alpha  occ. eigenvalues --   -0.23934  -0.19313
 Alpha virt. eigenvalues --   -0.06005  -0.00895   0.00874   0.04686   0.06790
 Alpha virt. eigenvalues --    0.10057   0.10368   0.11060   0.14235   0.14553
 Alpha virt. eigenvalues --    0.15482   0.16749   0.17067   0.17919   0.18219

 Mulliken charges:
               1
     1  C   -0.134829
     2  C   -0.147883
     3  C    0.075798
     4  C    0.075799
     5  C   -0.147883
     6  C   -0.134829
     7  C   -0.224524
     8  C   -0.224523
     9  C    0.075800
    10  C    0.075798
    11  C   -0.147883
    12  H    0.128735
    13  C   -0.134829
    14  C   -0.134829
    15  C   -0.147884
    16  H    0.130834
    17  H    0.125024
    18  H    0.128735
    19  H    0.128735
    20  H    0.125024
    21  H    0.130834
    22  H    0.125024
    23  H    0.125024
    24  H    0.128734
 Sum of Mulliken charges =   0.00000

 Dipole moment (field-independent basis, Debye):
    X=              0.0000    Y=              0.0000    Z=              0.0000  Tot=              0.0000
 Quadrupole moment (field-independent basis, Debye-Ang):
   XX=            -70.2381   YY=            -70.9307   ZZ=            -86.5801
   XY=              0.0000   XZ=             -0.0001   YZ=             -0.0001

  Exact polarizability: 265.367   0.000 149.436   0.000   0.000  40.085
 Approx polarizability: 444.665   0.000 282.568  -0.001   0.000  55.007

                      1                      2                      3
                      A                      A                      A
 Frequencies --     94.1874               125.4424               240.1051
 Red. masses --      4.9378                 3.6845                 4.4599
 Frc consts  --      0.0258                 0.0342                 0.1515
 IR Inten    --      1.0436                 0.0000                 1.3067

                      4                      5                      6
                      A                      A                      A
 Frequencies --    242.7575               277.2372               393.6637
 Red. masses --      4.7957                 3.6894                 3.2644
 Frc consts  --      0.1665                 0.1671                 0.2981
 IR Inten    --      0.0000                 0.0000                 0.0759

                      7                      8                      9
                      A                      A                      A
 Frequencies --    403.8108               404.9369               490.5176
 Red. masses --      4.6118                 6.6912                 2.3830
 Frc consts  --      0.4431                 0.6464                 0.3378
 IR Inten    --      0.0000                 0.0000                17.8052

                     10                     11                     12
                      A                      A                      A
 Frequencies --    495.2444               518.6864               548.4102
 Red. masses --      2.7846                 3.5214                 6.2330
 Frc consts  --      0.4024                 0.5582                 1.1045
 IR Inten    --      0.0000                 0.0000                 0.0000

                     13                     14                     15
                      A                      A                      A
 Frequencies --    604.1376               634.7125               660.2010
 Red. masses --      3.2773                 6.8365                 6.6860
 Frc consts  --      0.7047                 1.6227                 1.7170
 IR Inten    --      0.0000                 7.5454                 0.0000

                     16                     17                     18
                      A                      A                      A
 Frequencies --    675.3000               759.7999               772.5422
 Red. masses --      6.0770                 1.1882                 3.7215
 Frc consts  --      1.6328                 0.4041                 1.3086
 IR Inten    --      0.5369                79.4359                 0.0000

                     19                     20                     21
                      A                      A                      A
 Frequencies --    772.8876               791.4337               795.8923
 Red. masses --      5.7198                 1.3350                 2.6802
 Frc consts  --      2.0131                 0.4927                 1.0003
 IR Inten    --      0.0000                 0.0000                 0.0000

                     22                     23                     24
                      A                      A                      A
 Frequencies --    828.9342               868.9658               891.3072
 Red. masses --      3.7141                 1.2662                 1.5237
 Frc consts  --      1.5036                 0.5633                 0.7132
 IR Inten    --      0.0085                 0.0000                 0.0000

                     25                     26                     27
                      A                      A                      A
 Frequencies --    919.0017               939.6775               947.2239
 Red. masses --      1.4542                 5.5669                 1.7316
 Frc consts  --      0.7236                 2.8961                 0.9154
 IR Inten    --     70.5408                 1.6487                 0.0000

                     28                     29                     30
                      A                      A                      A
 Frequencies --    950.7612               988.8007               995.8102
 Red. masses --      5.4760                 1.3422                 1.3937
 Frc consts  --      2.9165                 0.7732                 0.8143
 IR Inten    --      0.0000                 0.0000                10.8485

                     31                     32                     33
                      A                      A                      A
 Frequencies --   1024.1916              1026.3766              1042.9516
 Red. masses --      1.3261                 1.3488                 2.4032
 Frc consts  --      0.8196                 0.8372                 1.5402
 IR Inten    --      0.0000                 0.0000                 3.8681

                     34                     35                     36
                      A                      A                      A
 Frequencies --   1047.3544              1144.3560              1200.1629
 Red. masses --      2.5132                 2.3644                 1.4359
 Frc consts  --      1.6243                 1.8243                 1.2186
 IR Inten    --      0.0000                 0.0000                 5.3103

                     37                     38                     39
                      A                      A                      A
 Frequencies --   1206.4221              1216.8879              1225.8576
 Red. masses --      1.3872                 1.3742                 1.0690
 Frc consts  --      1.1896                 1.1989                 0.9464
 IR Inten    --      2.6198                 2.1470                 0.0000

                     40                     41                     42
                      A                      A                      A
 Frequencies --   1248.8641              1319.5018              1323.9030
 Red. masses --      1.2141                 2.9063                 2.1798
 Frc consts  --      1.1157                 2.9814                 2.2511
 IR Inten    --      0.0000                 0.0000                 9.7482

                     43                     44                     45
                      A                      A                      A
 Frequencies --   1332.3866              1361.8885              1404.1963
 Red. masses --      1.4690                 2.8406                 3.2719
 Frc consts  --      1.5366                 3.1041                 3.8011
 IR Inten    --      0.0000                 2.3378                 3.9625

                     46                     47                     48
                      A                      A                      A
 Frequencies --   1448.0196              1449.7780              1450.9314
 Red. masses --      4.1937                 1.5004                10.0626
 Frc consts  --      5.1808                 1.8581                12.4812
 IR Inten    --      0.2065                 0.0000                 0.0000

                     49                     50                     51
                      A                      A                      A
 Frequencies --   1512.7764              1513.9435              1543.4742
 Red. masses --      1.8197                 2.4730                 2.4604
 Frc consts  --      2.4536                 3.3396                 3.4535
 IR Inten    --      3.5124                 2.1371                 0.0000

                     52                     53                     54
                      A                      A                      A
 Frequencies --   1600.4886              1610.2841              1643.4650
 Red. masses --      4.8450                 7.0952                 4.8247
 Frc consts  --      7.3122                10.8398                 7.6779
 IR Inten    --      5.4713                 0.0000                 0.0000

                     55                     56                     57
                      A                      A                      A
 Frequencies --   1688.7797              1689.0757              3181.0152
 Red. masses --      6.1678                 5.6296                 1.0895
 Frc consts  --     10.3640                 9.4630                 6.4952
 IR Inten    --      0.0000                 7.2716                10.3188

                     58                     59                     60
                      A                      A                      A
 Frequencies --   3183.2724              3185.1834              3185.8447
 Red. masses --      1.0906                 1.0856                 1.0864
 Frc consts  --      6.5111                 6.4894                 6.4966
 IR Inten    --      0.0000                 0.0000                17.3756

                     61                     62                     63
                      A                      A                      A
 Frequencies --   3189.6582              3191.0955              3205.6692
 Red. masses --      1.0878                 1.0878                 1.0943
 Frc consts  --      6.5204                 6.5267                 6.6256
 IR Inten    --      0.0011                 0.0000                 0.0002

                     64                     65                     66
                      A                      A                      A
 Frequencies --   3205.9637              3220.9657              3221.6110
 Red. masses --      1.0944                 1.0986                 1.0986
 Frc consts  --      6.6273                 6.7154                 6.7179
 IR Inten    --     78.3960                90.1245                 0.0001

 - Thermochemistry -
 -------------------
 Temperature   298.150 Kelvin.  Pressure   1.00000 Atm.
 Atom     1 has atomic number  6 and mass  12.00000

 Molecular mass:   178.07825 amu.
 Principal axes and moments of inertia in atomic units:
                           1         2         3
     Eigenvalues --   844.878924019.751364864.63028
           X            1.00000   0.00000   0.00000
           Y            0.00000   1.00000   0.00000
           Z            0.00000   0.00000   1.00000
 This molecule is an asymmetric top.
 Rotational symmetry number  1.
 Warning -- assumption of classical behavior for rotation
           may cause significant error
 Rotational temperatures (Kelvin)      0.10252     0.02155     0.01780
 Rotational constants (GHZ):           2.13609     0.44897     0.37099
 Zero-point vibrational energy     516062.9 (Joules/Mol)
                                  123.34200 (Kcal/Mol)
 Warning -- explicit consideration of  13 degrees of freedom as
           vibrations may cause significant error
 Vibrational temperatures:    135.51   180.48   345.46   349.27   398.88
          (Kelvin)            566.39   580.99   582.61   705.75   712.55
                              746.27   789.04   869.22   913.21   949.88
                              971.61  1093.18  1111.52  1112.01  1138.70
                             1145.11  1192.65  1250.25  1282.39  1322.24
                             1351.99  1362.84  1367.93  1422.66  1432.75
                             1473.58  1476.73  1500.57  1506.91  1646.47
                             1726.77  1735.77  1750.83  1763.74  1796.84
                             1898.47  1904.80  1917.01  1959.45  2020.33
                             2083.38  2085.91  2087.57  2176.55  2178.23
                             2220.72  2302.75  2316.84  2364.58  2429.78
                             2430.20  4576.77  4580.02  4582.77  4583.72
                             4589.21  4591.27  4612.24  4612.67  4634.25
                             4635.18

 Zero-point correction=                           0.196558 (Hartree/Particle)
 Thermal correction to Energy=                    0.205801
 Thermal correction to Enthalpy=                  0.206745
 Thermal correction to Gibbs Free Energy=         0.161922
 Sum of electronic and zero-point Energies=           -539.213816
 Sum of electronic and thermal Energies=              -539.204574
 Sum of electronic and thermal Enthalpies=            -539.203630
 Sum of electronic and thermal Free Energies=         -539.248453

                     E (Thermal)             CV                S
                      KCal/Mol        Cal/Mol-Kelvin    Cal/Mol-Kelvin
 Total                  129.142             39.732             94.338
 Electronic               0.000              0.000              0.000
 Translational            0.889              2.981             41.438
 Rotational               0.889              2.981             31.180
 Vibrational            127.364             33.770             21.720
 Vibration     1          0.603              1.953              3.571
 Vibration     2          0.610              1.928              3.015
 Vibration     3          0.657              1.779              1.802
 Vibration     4          0.659              1.775              1.783
 Vibration     5          0.678              1.716              1.551
 Vibration     6          0.761              1.484              0.986
 Vibration     7          0.769              1.462              0.949
 Vibration     8          0.770              1.459              0.945
 Vibration     9          0.846              1.271              0.682
 Vibration    10          0.851              1.261              0.670
 Vibration    11          0.874              1.209              0.613
 Vibration    12          0.904              1.143              0.547
 Vibration    13          0.963              1.023              0.443

 Optimization completed.
    -- Stationary point found.
 Normal termination of Gaussian 16 at Sat Jun 20 13:43:57 2020.
