 Gaussian 16, Revision A.03,
 Gaussian 16:  ES64L-G16RevA.03 25-Dec-2016

 ----------------------
 # opt freq b3lyp/6-31G
 ----------------------

 -----
 6-31G
 -----
 Symbolic Z-matrix:
 Charge =  0 Multiplicity = 1

 SCF Done:  E(RB3LYP) =  -232.198514818     A.U. after   10 cycles
 SCF Done:  E(RB3LYP) =  -232.198702334     A.U. after    7 cycles
 Optimization completed.
    -- Stationary point found.
 Normal termination of Gaussian 16 at Sun Jun 21 18:05:19 2020.

 -----------------------------------------------------------------
 #N Geom=AllCheck Guess=TCheck SCRF=Check GenChk RB3LYP/6-31G Freq
 -----------------------------------------------------------------

 Structure from the checkpoint file:  "benzene.chk"
 -----
 6-31G
 -----
 Charge =  0 Multiplicity = 1

                         Standard orientation:
 ---------------------------------------------------------------------
 Center     Atomic      Atomic             Coordinates (Angstroms)
 Number     Number       Type             X           Y           Z
 ---------------------------------------------------------------------
      1          6           0       -0.596433   -1.267213   -0.000002
      2          6           0       -1.395663   -0.117035    0.000048
      3          6           0       -0.799233    1.150125   -0.000028
      4          6           0        0.596479    1.267191    0.000007
      5          6           0        1.395659    0.117085    0.000025
      6          6           0        0.799191   -1.150153   -0.000039
      7          1           0       -1.058794   -2.249394   -0.000012
      8          1           0       -2.477429   -0.207834    0.000039
      9          1           0       -1.418637    2.041638   -0.000041
     10          1           0        1.058715    2.249431   -0.000007
     11          1           0        2.477437    0.207749    0.000016
     12          1           0        1.418706   -2.041590   -0.000060
 ---------------------------------------------------------------------

 SCF Done:  E(RB3LYP) =  -232.198702334     A.U. after    1 cycles

 The electronic state is 1-A.
 Alpha  occ. eigenvalues --  -10.18567 -10.18547 -10.18547 -10.18502 -10.18502
 Alpha  occ. eigenvalues --  -10.18483  -0.85112  -0.74387  -0.74387  -0.60112
 Alpha  occ. eigenvalues --   -0.60111  -0.52265  -0.46067  -0.44365  -0.42162
 Alpha  occ. eigenvalues --   -0.42161  -0.36142  -0.34234  -0.34234  -0.24819
 Alpha  occ. eigenvalues --   -0.24818
 Alpha virt. eigenvalues --    0.00373   0.00374   0.09276   0.14394   0.14394
 Alpha virt. eigenvalues --    0.16039   0.18105   0.18105   0.19015   0.30302
 Alpha virt. eigenvalues --    0.30303   0.32080   0.32080   0.49724   0.52624

 Mulliken charges:
               1
     1  C   -0.124649
     2  C   -0.124649
     3  C   -0.124653
     4  C   -0.124650
     5  C   -0.124649
     6  C   -0.124654
     7  H    0.124650
     8  H    0.124652
     9  H    0.124650
    10  H    0.124650
    11  H    0.124652
    12  H    0.124650
 Sum of Mulliken charges =   0.00000

 Dipole moment (field-independent basis, Debye):
    X=              0.0000    Y=              0.0000    Z=              0.0000  Tot=              0.0000
 Quadrupole moment (field-independent basis, Debye-Ang):
   XX=            -31.5721   YY=            -31.5721   ZZ=            -38.9112
   XY=              0.0000   XZ=              0.0000   YZ=              0.0000

  Exact polarizability:  70.622   0.000  70.622   0.000   0.000  18.736
 Approx polarizability: 115.854   0.000 115.854  -0.001   0.000  23.882

                      1                      2                      3
                      A                      A                      A
 Frequencies --    422.3550               422.4180               639.5933
 Red. masses --      2.8444                 2.8446                 6.1489
 Frc consts  --      0.2989                 0.2991                 1.4820
 IR Inten    --      0.0000                 0.0000                 0.0000

                      4                      5                      6
                      A                      A                      A
 Frequencies --    639.6077               705.5182               738.0239
 Red. masses --      6.1487                 1.0848                 3.3571
 Frc consts  --      1.4821                 0.3181                 1.0774
 IR Inten    --      0.0000               102.6739                 0.0000

                      7                      8                      9
                      A                      A                      A
 Frequencies --    884.0805               884.1429              1000.4914
 Red. masses --      1.2468                 1.2468                 1.3812
 Frc consts  --      0.5742                 0.5742                 0.8146
 IR Inten    --      0.0000                 0.0000                 0.0000

                     10                     11                     12
                      A                      A                      A
 Frequencies --   1000.5610              1021.6896              1044.7798
 Red. masses --      1.3812                 5.9729                 1.2859
 Frc consts  --      0.8147                 3.6734                 0.8270
 IR Inten    --      0.0000                 0.0000                 0.0000

                     13                     14                     15
                      A                      A                      A
 Frequencies --   1048.9846              1077.1428              1077.1974
 Red. masses --      6.5381                 1.7712                 1.7708
 Frc consts  --      4.2388                 1.2108                 1.2107
 IR Inten    --      0.0000                 3.8632                 3.8648

                     16                     17                     18
                      A                      A                      A
 Frequencies --   1217.6025              1231.6212              1231.6508
 Red. masses --      1.0533                 1.1375                 1.1375
 Frc consts  --      0.9201                 1.0166                 1.0166
 IR Inten    --      0.0000                 0.0000                 0.0000

                     19                     20                     21
                      A                      A                      A
 Frequencies --   1365.6826              1419.9185              1541.0145
 Red. masses --      7.9238                 1.2468                 1.9233
 Frc consts  --      8.7073                 1.4811                 2.6910
 IR Inten    --      0.0000                 0.0000                 8.6835

                     22                     23                     24
                      A                      A                      A
 Frequencies --   1541.0464              1653.5135              1653.5684
 Red. masses --      1.9237                 5.2694                 5.2695
 Frc consts  --      2.6917                 8.4884                 8.4892
 IR Inten    --      8.6808                 0.0000                 0.0000

                     25                     26                     27
                      A                      A                      A
 Frequencies --   3185.1141              3195.0417              3195.0611
 Red. masses --      1.0839                 1.0874                 1.0874
 Frc consts  --      6.4785                 6.5405                 6.5406
 IR Inten    --      0.0000                 0.0000                 0.0000

                     28                     29                     30
                      A                      A                      A
 Frequencies --   3213.2024              3213.2309              3227.4682
 Red. masses --      1.0955                 1.0955                 1.1011
 Frc consts  --      6.6638                 6.6639                 6.7580
 IR Inten    --     56.3174                56.3059                 0.0000

 - Thermochemistry -
 -------------------
 Temperature   298.150 Kelvin.  Pressure   1.00000 Atm.
 Atom     1 has atomic number  6 and mass  12.00000

 Molecular mass:    78.04695 amu.
 Principal axes and moments of inertia in atomic units:
                           1         2         3
     Eigenvalues --   318.90788 318.91203 637.81991
           X            0.99974  -0.02287   0.00001
           Y            0.02287   0.99974   0.00000
           Z           -0.00001   0.00000   1.00000
 This molecule is an asymmetric top.
 Rotational symmetry number  1.
 Rotational temperatures (Kelvin)      0.27160     0.27159     0.13580
 Rotational constants (GHZ):           5.65913     5.65906     2.82955
 Zero-point vibrational energy     267313.5 (Joules/Mol)
                                   63.88945 (Kcal/Mol)
 Warning -- explicit consideration of   2 degrees of freedom as
           vibrations may cause significant error
 Vibrational temperatures:    607.67   607.77   920.23   920.25  1015.08
          (Kelvin)           1061.85  1271.99  1272.08  1439.48  1439.58
                             1469.98  1503.21  1509.25  1549.77  1549.85
                             1751.86  1772.03  1772.07  1964.91  2042.95
                             2217.18  2217.22  2379.04  2379.12  4582.67
                             4596.95  4596.98  4623.08  4623.12  4643.61

 Zero-point correction=                           0.101814 (Hartree/Particle)
 Thermal correction to Energy=                    0.106123
 Thermal correction to Enthalpy=                  0.107067
 Thermal correction to Gibbs Free Energy=         0.074378
 Sum of electronic and zero-point Energies=           -232.096888
 Sum of electronic and thermal Energies=              -232.092579
 Sum of electronic and thermal Enthalpies=            -232.091635
 Sum of electronic and thermal Free Energies=         -232.124325

                     E (Thermal)             CV                S
                      KCal/Mol        Cal/Mol-Kelvin    Cal/Mol-Kelvin
 Total                   66.593             16.687             68.801
 Electronic               0.000              0.000              0.000
 Translational            0.889              2.981             38.979
 Rotational               0.889              2.981             25.676
 Vibrational             64.816             10.726              4.146
 Vibration     1          0.785              1.422              0.884
 Vibration     2          0.785              1.421              0.884

 Optimization completed.
    -- Stationary point found.
 Normal termination of Gaussian 16 at Sun Jun 21 18:06:14 2020.
