 Gaussian 16, Revision A.03,
 Gaussian 16:  ES64L-G16RevA.03 25-Dec-2016

 ------------------------
 # opt freq b3lyp/cc-pVDZ
 ------------------------

 -------
 cc-pVDZ
 -------
 Symbolic Z-matrix:
 Charge =  0 Multiplicity = 1

 SCF Done:  E(RB3LYP) =  -232.262696923     A.U. after   10 cycles
 SCF Done:  E(RB3LYP) =  -232.262950646     A.U. after    8 cycles
 Optimization completed.
    -- Stationary point found.
 Normal termination of Gaussian 16 at Fri Jun 19 15:23:29 2020.

 -------------------------------------------------------------------
 #N Geom=AllCheck Guess=TCheck SCRF=Check GenChk RB3LYP/CC-pVDZ Freq
 -------------------------------------------------------------------

 Structure from the checkpoint file:  "C6H6_opt.chk"
 -------
 cc-pVDZ
 -------
 Charge =  0 Multiplicity = 1

                         Standard orientation:
 ---------------------------------------------------------------------
 Center     Atomic      Atomic             Coordinates (Angstroms)
 Number     Number       Type             X           Y           Z
 ---------------------------------------------------------------------
      1          6           0       -1.331910   -0.427990    0.000002
      2          6           0       -0.295191   -1.367449    0.000098
      3          6           0        1.036590   -0.939465   -0.000077
      4          6           0        1.331874    0.428100    0.000014
      5          6           0        0.295304    1.367422    0.000076
      6          6           0       -1.036666    0.939384   -0.000077
      7          1           0       -2.372022   -0.762350   -0.000068
      8          1           0       -0.525912   -2.435352    0.000068
      9          1           0        1.846244   -1.673001   -0.000180
     10          1           0        2.372065    0.762193   -0.000005
     11          1           0        0.525771    2.435372    0.000035
     12          1           0       -1.846146    1.673125   -0.000074
 ---------------------------------------------------------------------

 SCF Done:  E(RB3LYP) =  -232.262950646     A.U. after    1 cycles

 The electronic state is 1-A.
 Alpha  occ. eigenvalues --  -10.19191 -10.19170 -10.19170 -10.19122 -10.19122
 Alpha  occ. eigenvalues --  -10.19100  -0.85207  -0.74493  -0.74492  -0.60136
 Alpha  occ. eigenvalues --   -0.60136  -0.52008  -0.46016  -0.44467  -0.42001
 Alpha  occ. eigenvalues --   -0.42000  -0.36575  -0.34351  -0.34349  -0.25321
 Alpha  occ. eigenvalues --   -0.25321
 Alpha virt. eigenvalues --   -0.00666  -0.00665   0.05728   0.09790   0.09790
 Alpha virt. eigenvalues --    0.13266   0.13266   0.15019   0.15165   0.27640
 Alpha virt. eigenvalues --    0.27640   0.29493   0.29495   0.40295   0.40753

 Mulliken charges:
               1
     1  C    0.029175
     2  C    0.029194
     3  C    0.029186
     4  C    0.029177
     5  C    0.029202
     6  C    0.029182
     7  H   -0.029184
     8  H   -0.029184
     9  H   -0.029189
    10  H   -0.029187
    11  H   -0.029187
    12  H   -0.029185
 Sum of Mulliken charges =   0.00000

 Dipole moment (field-independent basis, Debye):
    X=              0.0000    Y=              0.0000    Z=             -0.0001  Tot=              0.0001
 Quadrupole moment (field-independent basis, Debye-Ang):
   XX=            -32.0269   YY=            -32.0279   ZZ=            -39.0759
   XY=             -0.0001   XZ=             -0.0001   YZ=              0.0001

  Exact polarizability:  75.076   0.000  75.075   0.000   0.000  24.473
 Approx polarizability: 124.395   0.000 124.391   0.000   0.000  38.003

                      1                      2                      3
                      A                      A                      A
 Frequencies --    414.3678               414.5180               617.8552
 Red. masses --      2.8584                 2.8581                 6.0437
 Frc consts  --      0.2892                 0.2893                 1.3593
 IR Inten    --      0.0000                 0.0000                 0.0000

                      4                      5                      6
                      A                      A                      A
 Frequencies --    617.8654               690.2747               723.1220
 Red. masses --      6.0437                 1.0848                 3.5483
 Frc consts  --      1.3594                 0.3045                 1.0932
 IR Inten    --      0.0000                74.4923                 0.0000

                      7                      8                      9
                      A                      A                      A
 Frequencies --    865.4353               865.4646               986.4015
 Red. masses --      1.2484                 1.2484                 1.3780
 Frc consts  --      0.5509                 0.5509                 0.7899
 IR Inten    --      0.0000                 0.0000                 0.0000

                     10                     11                     12
                      A                      A                      A
 Frequencies --    986.4547              1013.5131              1018.5712
 Red. masses --      1.3780                 6.5802                 5.9914
 Frc consts  --      0.7900                 3.9824                 3.6624
 IR Inten    --      0.0000                 0.0000                 0.0000

                     13                     14                     15
                      A                      A                      A
 Frequencies --   1021.5691              1058.6467              1058.6693
 Red. masses --      1.2599                 1.6409                 1.6409
 Frc consts  --      0.7746                 1.0835                 1.0836
 IR Inten    --      0.0000                 4.4577                 4.4548

                     16                     17                     18
                      A                      A                      A
 Frequencies --   1161.6811              1186.2430              1186.2615
 Red. masses --      1.0631                 1.1227                 1.1227
 Frc consts  --      0.8453                 0.9308                 0.9308
 IR Inten    --      0.0000                 0.0000                 0.0000

                     19                     20                     21
                      A                      A                      A
 Frequencies --   1355.6151              1363.9108              1506.3387
 Red. masses --      7.4124                 1.2484                 2.1035
 Frc consts  --      8.0257                 1.3682                 2.8122
 IR Inten    --      0.0000                 0.0000                 6.7325

                     22                     23                     24
                      A                      A                      A
 Frequencies --   1506.3574              1644.7838              1644.8841
 Red. masses --      2.1035                 5.7063                 5.7073
 Frc consts  --      2.8122                 9.0954                 9.0982
 IR Inten    --      6.7389                 0.0000                 0.0000

                     25                     26                     27
                      A                      A                      A
 Frequencies --   3165.0466              3175.1923              3175.3128
 Red. masses --      1.0827                 1.0873                 1.0873
 Frc consts  --      6.3904                 6.4586                 6.4591
 IR Inten    --      0.0004                 0.0001                 0.0001

                     28                     29                     30
                      A                      A                      A
 Frequencies --   3191.5413              3191.6597              3202.3187
 Red. masses --      1.0958                 1.0958                 1.1005
 Frc consts  --      6.5763                 6.5768                 6.6493
 IR Inten    --     40.7662                40.7420                 0.0003

 - Thermochemistry -
 -------------------
 Temperature   298.150 Kelvin.  Pressure   1.00000 Atm.
 Atom     1 has atomic number  6 and mass  12.00000

 Molecular mass:    78.04695 amu.
 Principal axes and moments of inertia in atomic units:
                           1         2         3
     Eigenvalues --   318.62095 318.63093 637.25188
           X            0.99948  -0.03215   0.00000
           Y            0.03215   0.99948   0.00000
           Z            0.00000   0.00000   1.00000
 This molecule is an asymmetric top.
 Rotational symmetry number  1.
 Rotational temperatures (Kelvin)      0.27184     0.27183     0.13592
 Rotational constants (GHZ):           5.66423     5.66405     2.83207
 Zero-point vibrational energy     263237.5 (Joules/Mol)
                                   62.91528 (Kcal/Mol)
 Warning -- explicit consideration of   4 degrees of freedom as
           vibrations may cause significant error
 Vibrational temperatures:    596.18   596.40   888.96   888.97   993.15
          (Kelvin)           1040.41  1245.17  1245.21  1419.21  1419.29
                             1458.22  1465.50  1469.81  1523.16  1523.19
                             1671.40  1706.74  1706.77  1950.43  1962.36
                             2167.29  2167.31  2366.48  2366.62  4553.80
                             4568.39  4568.57  4591.92  4592.09  4607.42

 Zero-point correction=                           0.100262 (Hartree/Particle)
 Thermal correction to Energy=                    0.104657
 Thermal correction to Enthalpy=                  0.105601
 Thermal correction to Gibbs Free Energy=         0.072792
 Sum of electronic and zero-point Energies=           -232.162689
 Sum of electronic and thermal Energies=              -232.158294
 Sum of electronic and thermal Enthalpies=            -232.157350
 Sum of electronic and thermal Free Energies=         -232.190159

                     E (Thermal)             CV                S
                      KCal/Mol        Cal/Mol-Kelvin    Cal/Mol-Kelvin
 Total                   65.673             17.191             69.053
 Electronic               0.000              0.000              0.000
 Translational            0.889              2.981             38.979
 Rotational               0.889              2.981             25.673
 Vibrational             63.896             11.229              4.400
 Vibration     1          0.778              1.439              0.911
 Vibration     2          0.778              1.439              0.911
 Vibration     3          0.978              0.994              0.420
 Vibration     4          0.978              0.994              0.420

 Optimization completed.
    -- Stationary point found.
 Normal termination of Gaussian 16 at Fri Jun 19 15:24:38 2020.
