 Gaussian 16, Revision A.03,
 Gaussian 16:  ES64L-G16RevA.03 25-Dec-2016

 ----------------------
 # opt freq b3lyp/6-31G
 ----------------------

 -----
 6-31G
 -----
 Symbolic Z-matrix:
 Charge =  0 Multiplicity = 1

 SCF Done:  E(RB3LYP) =  -691.999713083     A.U. after   14 cycles
 SCF Done:  E(RB3LYP) =  -692.151782487     A.U. after   13 cycles
 SCF Done:  E(RB3LYP) =  -692.422571092     A.U. after   13 cycles
 SCF Done:  E(RB3LYP) =  -692.726936721     A.U. after   14 cycles
 SCF Done:  E(RB3LYP) =  -692.774666641     A.U. after   12 cycles
 SCF Done:  E(RB3LYP) =  -692.920726943     A.U. after   12 cycles
 SCF Done:  E(RB3LYP) =  -693.002171471     A.U. after   14 cycles
 SCF Done:  E(RB3LYP) =  -693.024048950     A.U. after   12 cycles
 SCF Done:  E(RB3LYP) =  -693.025558382     A.U. after   11 cycles
 SCF Done:  E(RB3LYP) =  -693.026960306     A.U. after   12 cycles
 SCF Done:  E(RB3LYP) =  -693.027387901     A.U. after   11 cycles
 SCF Done:  E(RB3LYP) =  -693.027379105     A.U. after   10 cycles
 SCF Done:  E(RB3LYP) =  -693.027489002     A.U. after    9 cycles
 Optimization completed.
    -- Stationary point found.
 Normal termination of Gaussian 16 at Sun Jun 21 18:11:14 2020.

 -----------------------------------------------------------------
 #N Geom=AllCheck Guess=TCheck SCRF=Check GenChk RB3LYP/6-31G Freq
 -----------------------------------------------------------------

 Structure from the checkpoint file:  "chrysene_opt.chk"
 -----
 6-31G
 -----
 Charge =  0 Multiplicity = 1

                         Standard orientation:
 ---------------------------------------------------------------------
 Center     Atomic      Atomic             Coordinates (Angstroms)
 Number     Number       Type             X           Y           Z
 ---------------------------------------------------------------------
      1          6           0       -0.504428   -0.501210    0.000000
      2          6           0        0.504427    0.501216    0.000000
      3          6           0       -0.129528   -1.907639    0.000000
      4          6           0       -1.879316   -0.095313    0.000000
      5          6           0        1.879313    0.095319    0.000000
      6          6           0        0.129527    1.907646    0.000000
      7          6           0        1.257456   -2.262075    0.000000
      8          6           0       -2.239589    1.224082    0.000000
      9          6           0        2.239586   -1.224078    0.000000
     10          6           0       -1.257461    2.262079    0.000000
     11          6           0        1.636974   -3.629738    0.000000
     12          6           0        0.685520   -4.632738    0.000000
     13          6           0       -0.685512   -4.292011    0.000000
     14          6           0       -1.080175   -2.964429    0.000000
     15          6           0       -1.636975    3.629732    0.000000
     16          6           0       -0.685512    4.632730    0.000000
     17          6           0        0.685519    4.291999    0.000000
     18          6           0        1.080174    2.964432    0.000000
     19          1           0       -2.659687   -0.845523    0.000000
     20          1           0        2.659687    0.845531    0.000000
     21          1           0       -3.289179    1.504512    0.000000
     22          1           0        3.289175   -1.504508    0.000000
     23          1           0        2.695616   -3.874380    0.000000
     24          1           0        0.985658   -5.675454    0.000000
     25          1           0       -1.435535   -5.076517    0.000000
     26          1           0       -2.139461   -2.740012    0.000000
     27          1           0       -2.695617    3.874380    0.000000
     28          1           0       -0.985653    5.675450    0.000000
     29          1           0        1.435553    5.076494    0.000000
     30          1           0        2.139461    2.740017    0.000000
 ---------------------------------------------------------------------

 SCF Done:  E(RB3LYP) =  -693.027489002     A.U. after    1 cycles

 The electronic state is 1-A'.
 Alpha  occ. eigenvalues --  -10.20085 -10.20050 -10.19974 -10.19973 -10.19613
 Alpha  occ. eigenvalues --  -10.19613 -10.18844 -10.18844 -10.18807 -10.18807
 Alpha  occ. eigenvalues --  -10.18799 -10.18799 -10.18779 -10.18779 -10.18755
 Alpha  occ. eigenvalues --  -10.18755 -10.18741 -10.18741  -0.88758  -0.86502
 Alpha  occ. eigenvalues --   -0.82940  -0.80951  -0.77254  -0.76958  -0.73909
 Alpha  occ. eigenvalues --   -0.72568  -0.71401  -0.63555  -0.63024  -0.62886
 Alpha  occ. eigenvalues --   -0.60009  -0.58923  -0.54322  -0.52838  -0.51122
 Alpha  occ. eigenvalues --   -0.50914  -0.48485  -0.46907  -0.46004  -0.44002
 Alpha  occ. eigenvalues --   -0.43578  -0.43317  -0.41777  -0.40965  -0.40551
 Alpha  occ. eigenvalues --   -0.40134  -0.39937  -0.37795  -0.37677  -0.35694
 Alpha  occ. eigenvalues --   -0.34601  -0.33305  -0.33295  -0.31893  -0.31539
 Alpha  occ. eigenvalues --   -0.28040  -0.27157  -0.23940  -0.22291  -0.20388
 Alpha virt. eigenvalues --   -0.04656  -0.02993  -0.01553   0.02577   0.02916
 Alpha virt. eigenvalues --    0.08373   0.09467   0.09612   0.10355   0.10804
 Alpha virt. eigenvalues --    0.12962   0.13161   0.15290   0.16354   0.17008

 Mulliken charges:
               1
     1  C    0.017387
     2  C    0.017382
     3  C    0.000848
     4  C   -0.134512
     5  C   -0.134512
     6  C    0.000852
     7  C    0.074800
     8  C   -0.168709
     9  C   -0.168712
    10  C    0.074801
    11  C   -0.169361
    12  C   -0.120964
    13  C   -0.135863
    14  C   -0.137065
    15  C   -0.169366
    16  C   -0.120965
    17  C   -0.135864
    18  C   -0.137064
    19  H    0.132367
    20  H    0.132368
    21  H    0.129053
    22  H    0.129053
    23  H    0.129461
    24  H    0.125816
    25  H    0.124777
    26  H    0.131968
    27  H    0.129462
    28  H    0.125815
    29  H    0.124777
    30  H    0.131969
 Sum of Mulliken charges =   0.00000

 Dipole moment (field-independent basis, Debye):
    X=              0.0000    Y=              0.0000    Z=              0.0000  Tot=              0.0000
 Quadrupole moment (field-independent basis, Debye-Ang):
   XX=            -90.1440   YY=            -89.3035   ZZ=           -110.3545
   XY=             -0.0009   XZ=              0.0000   YZ=              0.0000

  Exact polarizability: 196.604 -15.324 340.895   0.000   0.000  50.219
 Approx polarizability: 368.354 -11.176 535.170   0.000   0.000  70.052

                      1                      2                      3
                     A"                     A"                     A"
 Frequencies --     50.9968                79.8140               138.5460
 Red. masses --      4.7325                 4.0034                 3.4909
 Frc consts  --      0.0073                 0.0150                 0.0395
 IR Inten    --      0.1375                 0.2014                 0.0000

                      4                      5                      6
                     A"                     A'                     A"
 Frequencies --    182.4782               191.4857               242.8904
 Red. masses --      4.7375                 4.8812                 3.5310
 Frc consts  --      0.0929                 0.1055                 0.1227
 IR Inten    --      0.0000                 0.4816                 4.3668

                      7                      8                      9
                     A'                     A"                     A'
 Frequencies --    299.4188               301.4357               391.8627
 Red. masses --      6.3770                 4.4046                 5.0627
 Frc consts  --      0.3368                 0.2358                 0.4580
 IR Inten    --      0.0000                 0.1403                 0.0000

                     10                     11                     12
                     A"                     A"                     A"
 Frequencies --    399.0068               447.6952               495.7126
 Red. masses --      3.1293                 2.9833                 3.4724
 Frc consts  --      0.2935                 0.3523                 0.5027
 IR Inten    --      0.0000                 7.9958                 0.0000

                     13                     14                     15
                     A'                     A'                     A"
 Frequencies --    497.1512               498.4782               532.1516
 Red. masses --      4.7551                 6.1083                 2.9194
 Frc consts  --      0.6925                 0.8943                 0.4871
 IR Inten    --      8.5428                 0.0000                 0.0000

                     16                     17                     18
                     A'                     A"                     A'
 Frequencies --    557.6437               578.5180               591.2157
 Red. masses --      5.8833                 3.2342                 7.7170
 Frc consts  --      1.0779                 0.6378                 1.5892
 IR Inten    --      2.0550                 1.7904                 0.8932

                     19                     20                     21
                     A'                     A"                     A"
 Frequencies --    592.5081               600.7129               699.6358
 Red. masses --      7.2166                 2.7672                 3.3128
 Frc consts  --      1.4927                 0.5883                 0.9554
 IR Inten    --      0.0000                 6.0366                 0.0000

                     22                     23                     24
                     A'                     A'                     A"
 Frequencies --    704.6925               710.4941               760.0034
 Red. masses --      6.1948                 5.7799                 2.1429
 Frc consts  --      1.8125                 1.7191                 0.7293
 IR Inten    --      0.0000                10.9065                 0.0692

                     25                     26                     27
                     A"                     A"                     A'
 Frequencies --    771.1177               794.5921               798.5243
 Red. masses --      1.2279                 1.5713                 6.0060
 Frc consts  --      0.4302                 0.5845                 2.2564
 IR Inten    --      0.0000               101.0219                 0.0000

                     28                     29                     30
                     A"                     A"                     A"
 Frequencies --    807.3356               849.9603               861.4135
 Red. masses --      1.9330                 1.4584                 2.4008
 Frc consts  --      0.7423                 0.6207                 1.0496
 IR Inten    --      0.0000                71.4905                 0.0000

                     31                     32                     33
                     A'                     A"                     A"
 Frequencies --    881.5774               898.3535               904.0964
 Red. masses --      5.6046                 1.7258                 1.6641
 Frc consts  --      2.5663                 0.8206                 0.8014
 IR Inten    --      2.0581                 9.5969                 0.0000

                     34                     35                     36
                     A'                     A'                     A"
 Frequencies --    907.7698               910.0342               970.6402
 Red. masses --      3.6694                 6.0431                 1.3716
 Frc consts  --      1.7816                 2.9487                 0.7613
 IR Inten    --      0.0000                 3.6654                 0.0000

                     37                     38                     39
                     A"                     A"                     A"
 Frequencies --    979.0106               989.7246              1002.7531
 Red. masses --      1.3801                 1.3306                 1.3544
 Frc consts  --      0.7794                 0.7680                 0.8024
 IR Inten    --      5.3505                 0.2618                 0.0000

                     40                     41                     42
                     A"                     A"                     A'
 Frequencies --   1021.4634              1023.0081              1054.6223
 Red. masses --      1.3425                 1.3325                 5.5839
 Frc consts  --      0.8253                 0.8216                 3.6592
 IR Inten    --      0.0000                 0.2969                 0.0000

                     43                     44                     45
                     A'                     A'                     A'
 Frequencies --   1074.5952              1081.8639              1121.2924
 Red. masses --      2.3411                 2.3756                 3.3699
 Frc consts  --      1.5928                 1.6382                 2.4964
 IR Inten    --      7.8734                 0.0000                 0.6117

                     46                     47                     48
                     A'                     A'                     A'
 Frequencies --   1185.1412              1203.1181              1218.6841
 Red. masses --      1.6272                 1.3686                 1.2978
 Frc consts  --      1.3466                 1.1672                 1.1356
 IR Inten    --      0.0000                 0.4997                 3.0652

                     49                     50                     51
                     A'                     A'                     A'
 Frequencies --   1224.9038              1233.1204              1247.1848
 Red. masses --      1.1514                 1.3029                 2.0562
 Frc consts  --      1.0178                 1.1673                 1.8844
 IR Inten    --      0.0000                 0.0000                 2.4610

                     52                     53                     54
                     A'                     A'                     A'
 Frequencies --   1281.4539              1288.9989              1309.5143
 Red. masses --      2.1910                 1.8648                 1.6234
 Frc consts  --      2.1199                 1.8256                 1.6402
 IR Inten    --      0.0000                 3.4799                 0.0000

                     55                     56                     57
                     A'                     A'                     A'
 Frequencies --   1314.9784              1353.8460              1380.6901
 Red. masses --      1.7450                 1.9794                 4.6912
 Frc consts  --      1.7778                 2.1376                 5.2689
 IR Inten    --     16.5057                 0.0370                 0.0000

                     58                     59                     60
                     A'                     A'                     A'
 Frequencies --   1412.7560              1417.7912              1425.2337
 Red. masses --      7.0045                 3.9800                 4.1904
 Frc consts  --      8.2368                 4.7137                 5.0150
 IR Inten    --      2.3431                 0.0000                 0.0000

                     61                     62                     63
                     A'                     A'                     A'
 Frequencies --   1483.9175              1493.2028              1493.7522
 Red. masses --      2.2620                 2.0608                 1.9438
 Frc consts  --      2.9347                 2.7072                 2.5553
 IR Inten    --      9.9514                 5.2616                 0.0002

                     64                     65                     66
                     A'                     A'                     A'
 Frequencies --   1514.0246              1546.3828              1578.4336
 Red. masses --      1.9612                 2.6907                 3.3330
 Frc consts  --      2.6488                 3.7910                 4.8925
 IR Inten    --      0.0000                 9.4617                 8.8411

                     67                     68                     69
                     A'                     A'                     A'
 Frequencies --   1584.1914              1622.1314              1656.3436
 Red. masses --      2.9041                 7.3705                 5.8777
 Frc consts  --      4.2941                11.4267                 9.5007
 IR Inten    --      0.0000                 0.0000                 7.6433

                     70                     71                     72
                     A'                     A'                     A'
 Frequencies --   1666.1949              1676.9431              1679.3550
 Red. masses --      5.4968                 5.7087                 6.1203
 Frc consts  --      8.9911                 9.4586                10.1697
 IR Inten    --      0.0000                 1.7888                 0.0000

                     73                     74                     75
                     A'                     A'                     A'
 Frequencies --   3186.0153              3186.2394              3189.7076
 Red. masses --      1.0873                 1.0875                 1.0881
 Frc consts  --      6.5030                 6.5046                 6.5226
 IR Inten    --      0.0006                 1.1674                23.4066

                     76                     77                     78
                     A'                     A'                     A'
 Frequencies --   3190.5558              3198.8307              3199.2344
 Red. masses --      1.0883                 1.0889                 1.0891
 Frc consts  --      6.5275                 6.5648                 6.5678
 IR Inten    --      0.0001                 0.0009                38.4839

                     79                     80                     81
                     A'                     A'                     A'
 Frequencies --   3217.1476              3217.6454              3227.4737
 Red. masses --      1.0946                 1.0946                 1.0966
 Frc consts  --      6.6752                 6.6769                 6.7303
 IR Inten    --     74.9990                 0.0840                 0.0113

                     82                     83                     84
                     A'                     A'                     A'
 Frequencies --   3227.8358              3244.1449              3244.6713
 Red. masses --      1.0966                 1.0907                 1.0904
 Frc consts  --      6.7314                 6.7631                 6.7635
 IR Inten    --     19.3765                66.8011                 0.0203

 - Thermochemistry -
 -------------------
 Temperature   298.150 Kelvin.  Pressure   1.00000 Atm.
 Atom     1 has atomic number  6 and mass  12.00000

 Molecular mass:   228.09390 amu.
 Principal axes and moments of inertia in atomic units:
                           1         2         3
     Eigenvalues --  1441.898696898.153518340.05220
           X           -0.13231   0.99121   0.00000
           Y            0.99121   0.13231   0.00000
           Z            0.00000   0.00000   1.00000
 This molecule is an asymmetric top.
 Rotational symmetry number  1.
 Warning -- assumption of classical behavior for rotation
           may cause significant error
 Rotational temperatures (Kelvin)      0.06007     0.01256     0.01039
 Rotational constants (GHZ):           1.25164     0.26163     0.21639
 Zero-point vibrational energy     641617.6 (Joules/Mol)
                                  153.35029 (Kcal/Mol)
 Warning -- explicit consideration of  20 degrees of freedom as
           vibrations may cause significant error
 Vibrational temperatures:     73.37   114.83   199.34   262.55   275.51
          (Kelvin)            349.47   430.80   433.70   563.80   574.08
                              644.13   713.22   715.29   717.20   765.65
                              802.32   832.36   850.63   852.49   864.29
                             1006.62  1013.90  1022.24  1093.48  1109.47
                             1143.24  1148.90  1161.58  1222.90  1239.38
                             1268.39  1292.53  1300.79  1306.08  1309.34
                             1396.53  1408.58  1423.99  1442.74  1469.66
                             1471.88  1517.37  1546.10  1556.56  1613.29
                             1705.15  1731.02  1753.41  1762.36  1774.19
                             1794.42  1843.73  1854.58  1884.10  1891.96
                             1947.88  1986.51  2032.64  2039.89  2050.59
                             2135.03  2148.39  2149.18  2178.34  2224.90
                             2271.01  2279.30  2333.89  2383.11  2397.28
                             2412.75  2416.22  4583.97  4584.29  4589.28
                             4590.50  4602.40  4602.98  4628.76  4629.47
                             4643.61  4644.14  4667.60  4668.36

 Zero-point correction=                           0.244379 (Hartree/Particle)
 Thermal correction to Energy=                    0.256293
 Thermal correction to Enthalpy=                  0.257237
 Thermal correction to Gibbs Free Energy=         0.206057
 Sum of electronic and zero-point Energies=           -692.783110
 Sum of electronic and thermal Energies=              -692.771196
 Sum of electronic and thermal Enthalpies=            -692.770252
 Sum of electronic and thermal Free Energies=         -692.821432

                     E (Thermal)             CV                S
                      KCal/Mol        Cal/Mol-Kelvin    Cal/Mol-Kelvin
 Total                  160.826             51.156            107.718
 Electronic               0.000              0.000              0.000
 Translational            0.889              2.981             42.176
 Rotational               0.889              2.981             32.784
 Vibrational            159.049             45.194             32.758
 Vibration     1          0.595              1.977              4.778
 Vibration     2          0.600              1.963              3.895
 Vibration     3          0.614              1.915              2.824
 Vibration     4          0.630              1.864              2.303
 Vibration     5          0.634              1.852              2.213
 Vibration     6          0.659              1.775              1.782
 Vibration     7          0.692              1.675              1.420
 Vibration     8          0.693              1.671              1.409
 Vibration     9          0.759              1.488              0.993
 Vibration    10          0.765              1.472              0.966
 Vibration    11          0.807              1.366              0.803
 Vibration    12          0.851              1.260              0.669
 Vibration    13          0.853              1.256              0.665
 Vibration    14          0.854              1.253              0.662
 Vibration    15          0.887              1.179              0.582
 Vibration    16          0.913              1.123              0.529
 Vibration    17          0.935              1.078              0.488
 Vibration    18          0.949              1.050              0.465
 Vibration    19          0.950              1.048              0.463
 Vibration    20          0.959              1.030              0.448

                           ! Non-Optimized Parameters !
 Normal termination of Gaussian 16 at Sun Jun 21 18:18:37 2020.
