 Gaussian 16, Revision A.03,
 Gaussian 16:  ES64L-G16RevA.03 25-Dec-2016

 ----------------------
 # opt freq b3lyp/6-31G
 ----------------------

 -------------------
 Title Card Required
 -------------------
 Symbolic Z-matrix:
 Charge =  0 Multiplicity = 1

 SCF Done:  E(RB3LYP) =  -385.806052130     A.U. after   12 cycles
 SCF Done:  E(RB3LYP) =  -385.807627866     A.U. after   11 cycles
 SCF Done:  E(RB3LYP) =  -385.807654055     A.U. after    8 cycles
 SCF Done:  E(RB3LYP) =  -385.807658056     A.U. after    8 cycles
 Optimization completed.
    -- Stationary point found.
 Normal termination of Gaussian 16 at Sun Jun 21 11:46:08 2020.

 -----------------------------------------------------------------
 #N Geom=AllCheck Guess=TCheck SCRF=Check GenChk RB3LYP/6-31G Freq
 -----------------------------------------------------------------

 Structure from the checkpoint file:  "naphthalene_opt.chk"
 -------------------
 Title Card Required
 -------------------
 Charge =  0 Multiplicity = 1

                         Standard orientation:
 ---------------------------------------------------------------------
 Center     Atomic      Atomic             Coordinates (Angstroms)
 Number     Number       Type             X           Y           Z
 ---------------------------------------------------------------------
      1          6           0        2.439685   -0.709983   -0.000002
      2          6           0        1.247601   -1.406096    0.000001
      3          6           0        0.000012   -0.718997    0.000001
      4          6           0       -0.000013    0.718994    0.000001
      5          6           0        1.247588    1.406097    0.000002
      6          6           0        2.439673    0.709995   -0.000001
      7          1           0       -1.244814   -2.492627    0.000008
      8          1           0        3.383925   -1.245296   -0.000004
      9          1           0        1.244831   -2.492617   -0.000002
     10          6           0       -1.247594   -1.406103    0.000001
     11          6           0       -1.247603    1.406103    0.000000
     12          1           0        1.244817    2.492623   -0.000001
     13          1           0        3.383913    1.245309   -0.000004
     14          6           0       -2.439680    0.709984   -0.000001
     15          6           0       -2.439670   -0.709993   -0.000002
     16          1           0       -1.244815    2.492621    0.000006
     17          1           0       -3.383935    1.245274   -0.000005
     18          1           0       -3.383914   -1.245299   -0.000002
 ---------------------------------------------------------------------

 SCF Done:  E(RB3LYP) =  -385.807658056     A.U. after    1 cycles

 The electronic state is 1-A.
 Alpha  occ. eigenvalues --  -10.19538 -10.19508 -10.18746 -10.18746 -10.18719
 Alpha  occ. eigenvalues --  -10.18719 -10.18672 -10.18671 -10.18665 -10.18665
 Alpha  occ. eigenvalues --   -0.87338  -0.82110  -0.77328  -0.74086  -0.71955
 Alpha  occ. eigenvalues --   -0.62607  -0.61178  -0.59647  -0.51518  -0.51101
 Alpha  occ. eigenvalues --   -0.49447  -0.44852  -0.44173  -0.41957  -0.41778
 Alpha  occ. eigenvalues --   -0.40115  -0.38805  -0.36964  -0.33858  -0.32983
 Alpha  occ. eigenvalues --   -0.32476  -0.28337  -0.24223  -0.21408
 Alpha virt. eigenvalues --   -0.03535  -0.00429   0.03664   0.09639   0.10142
 Alpha virt. eigenvalues --    0.11437   0.12143   0.16534   0.16649   0.17505
 Alpha virt. eigenvalues --    0.18277   0.20080   0.20590   0.24741   0.28609

 Mulliken charges:
               1
     1  C   -0.130359
     2  C   -0.154094
     3  C    0.063865
     4  C    0.063860
     5  C   -0.154101
     6  C   -0.130354
     7  H    0.127968
     8  H    0.124552
     9  H    0.127969
    10  C   -0.154095
    11  C   -0.154085
    12  H    0.127967
    13  H    0.124551
    14  C   -0.130362
    15  C   -0.130354
    16  H    0.127970
    17  H    0.124552
    18  H    0.124551
 Sum of Mulliken charges =   0.00000

 Dipole moment (field-independent basis, Debye):
    X=              0.0000    Y=              0.0000    Z=              0.0000  Tot=              0.0000
 Quadrupole moment (field-independent basis, Debye-Ang):
   XX=            -51.0018   YY=            -51.2761   ZZ=            -62.7413
   XY=             -0.0001   XZ=              0.0000   YZ=              0.0000

  Exact polarizability: 152.008   0.000 109.439   0.000   0.000  29.445
 Approx polarizability: 259.234  -0.001 193.485   0.000   0.000  39.383

                      1                      2                      3
                      A                      A                      A
 Frequencies --    178.9053               192.2749               372.8466
 Red. masses --      4.1703                 3.4277                 3.8296
 Frc consts  --      0.0786                 0.0747                 0.3137
 IR Inten    --      1.9736                 0.0000                 1.2660

                      4                      5                      6
                      A                      A                      A
 Frequencies --    402.7376               490.8409               498.8058
 Red. masses --      3.1366                 3.2881                 2.4766
 Frc consts  --      0.2998                 0.4667                 0.3631
 IR Inten    --      0.0000                 0.0000                16.6907

                      7                      8                      9
                      A                      A                      A
 Frequencies --    530.5713               530.9523               648.9758
 Red. masses --      7.0843                 6.5924                 3.2754
 Frc consts  --      1.1750                 1.0950                 0.8128
 IR Inten    --      0.0000                 0.0000                 0.0000

                     10                     11                     12
                      A                      A                      A
 Frequencies --    654.0970               748.0127               781.4071
 Red. masses --      6.4885                 1.1449                 4.6674
 Frc consts  --      1.6356                 0.3774                 1.6791
 IR Inten    --      3.1441                 0.0000                 0.0000

                     13                     14                     15
                      A                      A                      A
 Frequencies --    799.7713               821.6771               826.1785
 Red. masses --      2.9234                 1.3560                 5.4080
 Frc consts  --      1.1017                 0.5394                 2.1749
 IR Inten    --      0.0000               119.2738                 0.1945

                     16                     17                     18
                      A                      A                      A
 Frequencies --    872.0456               921.7911               972.8498
 Red. masses --      1.2654                 1.6989                 5.1631
 Frc consts  --      0.5670                 0.8505                 2.8791
 IR Inten    --      0.0000                 0.0000                 0.0000

                     19                     20                     21
                      A                      A                      A
 Frequencies --    976.3572               997.0527              1020.5418
 Red. masses --      1.3154                 1.4028                 1.3091
 Frc consts  --      0.7388                 0.8216                 0.8033
 IR Inten    --      0.0000                 5.0892                 0.0000

                     22                     23                     24
                      A                      A                      A
 Frequencies --   1029.8033              1051.3591              1061.7742
 Red. masses --      1.3484                 2.7790                 2.2056
 Frc consts  --      0.8425                 1.8099                 1.4650
 IR Inten    --      0.0000                 4.7044                 0.0000

                     25                     26                     27
                      A                      A                      A
 Frequencies --   1174.8753              1200.0193              1216.4933
 Red. masses --      1.8195                 1.3298                 1.2179
 Frc consts  --      1.4797                 1.1282                 1.0619
 IR Inten    --      3.6394                 0.0000                 1.0983

                     28                     29                     30
                      A                      A                      A
 Frequencies --   1218.1503              1259.7389              1303.4064
 Red. masses --      1.0870                 2.0683                 1.5988
 Frc consts  --      0.9503                 1.9338                 1.6003
 IR Inten    --      0.0000                 1.6421                 0.0000

                     31                     32                     33
                      A                      A                      A
 Frequencies --   1320.4480              1419.0376              1430.2696
 Red. masses --      1.8354                 3.7255                 8.2305
 Frc consts  --      1.8855                 4.4200                 9.9201
 IR Inten    --      8.2040                 1.4820                 0.0000

                     34                     35                     36
                      A                      A                      A
 Frequencies --   1452.5078              1519.1703              1520.6552
 Red. masses --      1.5188                 2.1864                 1.8264
 Frc consts  --      1.8880                 2.9730                 2.4884
 IR Inten    --      3.3663                 0.0000                 0.0000

                     37                     38                     39
                      A                      A                      A
 Frequencies --   1571.8263              1630.5997              1659.3462
 Red. masses --      3.0359                 6.7794                 4.7424
 Frc consts  --      4.4193                10.6203                 7.6934
 IR Inten    --      9.2510                 0.0000                 5.8430

                     40                     41                     42
                      A                      A                      A
 Frequencies --   1689.9912              3183.4722              3185.0798
 Red. masses --      6.0524                 1.0858                 1.0856
 Frc consts  --     10.1846                 6.4836                 6.4889
 IR Inten    --      0.0000                 0.0001                 8.4655

                     43                     44                     45
                      A                      A                      A
 Frequencies --   3187.4868              3190.7802              3203.9551
 Red. masses --      1.0886                 1.0877                 1.0938
 Frc consts  --      6.5165                 6.5248                 6.6155
 IR Inten    --      1.1976                 0.0000                 0.0000

                     46                     47                     48
                      A                      A                      A
 Frequencies --   3205.2771              3219.8688              3221.3620
 Red. masses --      1.0939                 1.0988                 1.0984
 Frc consts  --      6.6213                 6.7119                 6.7154
 IR Inten    --     75.3509                67.5137                 0.0002

 - Thermochemistry -
 -------------------
 Temperature   298.150 Kelvin.  Pressure   1.00000 Atm.
 Atom     1 has atomic number  6 and mass  12.00000

 Molecular mass:   128.06260 amu.
 Principal axes and moments of inertia in atomic units:
                           1         2         3
     Eigenvalues --   581.380951474.199752055.58070
           X            1.00000   0.00000   0.00000
           Y            0.00000   1.00000   0.00000
           Z            0.00000   0.00000   1.00000
 This molecule is an asymmetric top.
 Rotational symmetry number  1.
 Warning -- assumption of classical behavior for rotation
           may cause significant error
 Rotational temperatures (Kelvin)      0.14898     0.05875     0.04214
 Rotational constants (GHZ):           3.10423     1.22422     0.87797
 Zero-point vibrational energy     392168.5 (Joules/Mol)
                                   93.73051 (Kcal/Mol)
 Warning -- explicit consideration of   8 degrees of freedom as
           vibrations may cause significant error
 Vibrational temperatures:    257.40   276.64   536.44   579.45   706.21
          (Kelvin)            717.67   763.37   763.92   933.73   941.10
                             1076.22  1124.27  1150.69  1182.21  1188.69
                             1254.68  1326.25  1399.71  1404.76  1434.54
                             1468.33  1481.66  1512.67  1527.66  1690.38
                             1726.56  1750.26  1752.65  1812.48  1875.31
                             1899.83  2041.68  2057.84  2089.83  2185.75
                             2187.88  2261.51  2346.07  2387.43  2431.52
                             4580.31  4582.62  4586.08  4590.82  4609.78
                             4611.68  4632.67  4634.82

 Zero-point correction=                           0.149369 (Hartree/Particle)
 Thermal correction to Energy=                    0.156036
 Thermal correction to Enthalpy=                  0.156981
 Thermal correction to Gibbs Free Energy=         0.118239
 Sum of electronic and zero-point Energies=           -385.658289
 Sum of electronic and thermal Energies=              -385.651622
 Sum of electronic and thermal Enthalpies=            -385.650678
 Sum of electronic and thermal Free Energies=         -385.689419

                     E (Thermal)             CV                S
                      KCal/Mol        Cal/Mol-Kelvin    Cal/Mol-Kelvin
 Total                   97.914             28.126             81.539
 Electronic               0.000              0.000              0.000
 Translational            0.889              2.981             40.455
 Rotational               0.889              2.981             28.956
 Vibrational             96.137             22.164             12.127
 Vibration     1          0.629              1.868              2.340
 Vibration     2          0.634              1.851              2.206
 Vibration     3          0.744              1.528              1.068
 Vibration     4          0.768              1.464              0.953
 Vibration     5          0.847              1.270              0.681
 Vibration     6          0.854              1.253              0.661
 Vibration     7          0.886              1.182              0.586
 Vibration     8          0.886              1.182              0.585

 Optimization completed.
    -- Stationary point found.
 Normal termination of Gaussian 16 at Sun Jun 21 11:48:17 2020.
