 Gaussian 16, Revision A.03,
 Gaussian 16:  ES64L-G16RevA.03 25-Dec-2016

 ----------------------
 # opt freq b3lyp/6-31G
 ----------------------

 -----
 6-31G
 -----
 Symbolic Z-matrix:
 Charge =  0 Multiplicity = 1

 SCF Done:  E(RB3LYP) =  -539.416498253     A.U. after   13 cycles
 SCF Done:  E(RB3LYP) =  -539.418773360     A.U. after   12 cycles
 SCF Done:  E(RB3LYP) =  -539.418864535     A.U. after   11 cycles
 SCF Done:  E(RB3LYP) =  -539.418870759     A.U. after    8 cycles
 Optimization completed.
    -- Stationary point found.
 Normal termination of Gaussian 16 at Sat Jun 20 13:38:30 2020.

 -----------------------------------------------------------------
 #N Geom=AllCheck Guess=TCheck SCRF=Check GenChk RB3LYP/6-31G Freq
 -----------------------------------------------------------------

 Structure from the checkpoint file:  "phenanthrene_opt.chk"
 -----
 6-31G
 -----
 Charge =  0 Multiplicity = 1

                         Standard orientation:
 ---------------------------------------------------------------------
 Center     Atomic      Atomic             Coordinates (Angstroms)
 Number     Number       Type             X           Y           Z
 ---------------------------------------------------------------------
      1          6           0        3.568535   -0.297910    0.000040
      2          6           0        2.843616    0.881433    0.000123
      3          6           0        1.425952    0.869161    0.000068
      4          6           0        0.730037   -0.381212   -0.000017
      5          6           0        1.501589   -1.570967   -0.000147
      6          6           0        2.887807   -1.533688   -0.000120
      7          6           0        0.681585    2.099390    0.000049
      8          6           0       -0.730038   -0.381210    0.000007
      9          6           0       -1.425951    0.869160   -0.000073
     10          6           0       -0.681585    2.099389   -0.000065
     11          6           0       -2.843618    0.881432   -0.000104
     12          1           0       -3.354569    1.840223   -0.000184
     13          6           0       -3.568534   -0.297909   -0.000021
     14          6           0       -2.887804   -1.533690    0.000121
     15          6           0       -1.501590   -1.570969    0.000137
     16          1           0        1.234995    3.034032    0.000112
     17          1           0        4.653503   -0.275353    0.000086
     18          1           0        3.354569    1.840223    0.000212
     19          1           0        1.007187   -2.535242   -0.000321
     20          1           0        3.452078   -2.460898   -0.000243
     21          1           0       -1.234995    3.034032   -0.000137
     22          1           0       -4.653503   -0.275357   -0.000044
     23          1           0       -3.452083   -2.460896    0.000237
     24          1           0       -1.007178   -2.535238    0.000296
 ---------------------------------------------------------------------

 SCF Done:  E(RB3LYP) =  -539.418870759     A.U. after    1 cycles

 The electronic state is 1-A.
 Alpha  occ. eigenvalues --  -10.19922 -10.19898 -10.19640 -10.19639 -10.18785
 Alpha  occ. eigenvalues --  -10.18784 -10.18779 -10.18744 -10.18744 -10.18719
 Alpha  occ. eigenvalues --  -10.18719 -10.18718 -10.18691 -10.18691  -0.88260
 Alpha  occ. eigenvalues --   -0.84939  -0.80948  -0.77663  -0.75676  -0.72533
 Alpha  occ. eigenvalues --   -0.71938  -0.63323  -0.62650  -0.61173  -0.58431
 Alpha  occ. eigenvalues --   -0.53438  -0.53022  -0.49710  -0.48031  -0.47683
 Alpha  occ. eigenvalues --   -0.43859  -0.43358  -0.42815  -0.42448  -0.41174
 Alpha  occ. eigenvalues --   -0.39945  -0.39399  -0.36481  -0.36072  -0.35755
 Alpha  occ. eigenvalues --   -0.33370  -0.32412  -0.31326  -0.28318  -0.26157
 Alpha  occ. eigenvalues --   -0.22342  -0.21209
 Alpha virt. eigenvalues --   -0.03647  -0.02933   0.01052   0.03875   0.08209
 Alpha virt. eigenvalues --    0.09404   0.10541   0.10774   0.14607   0.14740
 Alpha virt. eigenvalues --    0.14743   0.16309   0.17032   0.18328   0.19718

 Mulliken charges:
               1
     1  C   -0.119653
     2  C   -0.174176
     3  C    0.061575
     4  C    0.021848
     5  C   -0.139455
     6  C   -0.135658
     7  C   -0.153478
     8  C    0.021846
     9  C    0.061574
    10  C   -0.153478
    11  C   -0.174174
    12  H    0.128626
    13  C   -0.119653
    14  C   -0.135659
    15  C   -0.139451
    16  H    0.128867
    17  H    0.125498
    18  H    0.128626
    19  H    0.131467
    20  H    0.124538
    21  H    0.128867
    22  H    0.125498
    23  H    0.124538
    24  H    0.131467
 Sum of Mulliken charges =   0.00000

 Dipole moment (field-independent basis, Debye):
    X=              0.0000    Y=             -0.0339    Z=              0.0000  Tot=              0.0339
 Quadrupole moment (field-independent basis, Debye-Ang):
   XX=            -70.3100   YY=            -70.6810   ZZ=            -86.5415
   XY=              0.0000   XZ=              0.0001   YZ=              0.0000

  Exact polarizability: 232.765   0.000 156.987   0.002   0.000  39.863
 Approx polarizability: 383.954   0.000 284.736   0.006   0.000  54.712

                      1                      2                      3
                      A                      A                      A
 Frequencies --     99.0600               104.4276               235.6750
 Red. masses --      3.6405                 4.3497                 3.6565
 Frc consts  --      0.0210                 0.0279                 0.1197
 IR Inten    --      0.0000                 0.6634                 2.9388

                      4                      5                      6
                      A                      A                      A
 Frequencies --    249.8690               252.3786               409.2632
 Red. masses --      4.1970                 4.6002                 3.1335
 Frc consts  --      0.1544                 0.1726                 0.3092
 IR Inten    --      0.0000                 0.3894                 0.0000

                      7                      8                      9
                      A                      A                      A
 Frequencies --    419.5318               447.2521               455.4863
 Red. masses --      6.4882                 3.0504                 4.7603
 Frc consts  --      0.6728                 0.3595                 0.5819
 IR Inten    --      0.4101                 5.5707                 1.7560

                     10                     11                     12
                      A                      A                      A
 Frequencies --    518.0023               518.2820               558.6500
 Red. masses --      5.4236                 3.2417                 2.6912
 Frc consts  --      0.8574                 0.5131                 0.4949
 IR Inten    --      0.7777                 3.9413                 0.0000

                     13                     14                     15
                      A                      A                      A
 Frequencies --    569.9489               612.4347               649.2666
 Red. masses --      7.1664                 3.2291                 6.9420
 Frc consts  --      1.3716                 0.7136                 1.7242
 IR Inten    --      0.3433                 0.0000                 4.6239

                     16                     17                     18
                      A                      A                      A
 Frequencies --    735.2763               740.7440               743.1610
 Red. masses --      5.5504                 2.9180                 5.8304
 Frc consts  --      1.7680                 0.9433                 1.8972
 IR Inten    --      0.0600                 2.4157                 2.2892

                     19                     20                     21
                      A                      A                      A
 Frequencies --    767.1498               786.8167               820.1241
 Red. masses --      1.2166                 1.5576                 2.0892
 Frc consts  --      0.4219                 0.5681                 0.8279
 IR Inten    --     77.6921                 0.0000                 0.0000

                     22                     23                     24
                      A                      A                      A
 Frequencies --    851.3310               860.8019               902.6166
 Red. masses --      1.3987                 5.7822                 1.9178
 Frc consts  --      0.5973                 2.5244                 0.9206
 IR Inten    --     64.4964                 0.0459                 0.0000

                     25                     26                     27
                      A                      A                      A
 Frequencies --    903.5177               907.4490               970.5395
 Red. masses --      4.1064                 1.4907                 1.3737
 Frc consts  --      1.9751                 0.7232                 0.7624
 IR Inten    --      1.4511                12.2531                 0.0000

                     28                     29                     30
                      A                      A                      A
 Frequencies --    983.8281              1005.5061              1022.1096
 Red. masses --      1.3700                 1.3283                 1.3162
 Frc consts  --      0.7813                 0.7913                 0.8101
 IR Inten    --      5.3103                 0.0000                 0.0686

                     31                     32                     33
                      A                      A                      A
 Frequencies --   1023.1707              1035.2620              1078.1891
 Red. masses --      1.3683                 7.1028                 2.6019
 Frc consts  --      0.8440                 4.4852                 1.7821
 IR Inten    --      0.0000                 1.3816                 0.7162

                     34                     35                     36
                      A                      A                      A
 Frequencies --   1080.0461              1135.6373              1193.1032
 Red. masses --      2.0974                 2.4966                 1.4177
 Frc consts  --      1.4415                 1.8970                 1.1890
 IR Inten    --      4.3032                 1.1235                 1.4540

                     37                     38                     39
                      A                      A                      A
 Frequencies --   1209.4620              1220.7164              1226.7069
 Red. masses --      1.3382                 1.2642                 1.0693
 Frc consts  --      1.1533                 1.1099                 0.9481
 IR Inten    --      0.1993                 0.0769                 0.6596

                     40                     41                     42
                      A                      A                      A
 Frequencies --   1254.7513              1273.7985              1300.3388
 Red. masses --      2.3779                 1.8892                 1.5065
 Frc consts  --      2.2058                 1.8060                 1.5008
 IR Inten    --      2.1239                 1.0310                10.1311

                     43                     44                     45
                      A                      A                      A
 Frequencies --   1336.8977              1353.0919              1399.9598
 Red. masses --      1.7556                 2.7606                 7.7611
 Frc consts  --      1.8488                 2.9779                 8.9620
 IR Inten    --      0.0362                 1.4394                 0.0930

                     46                     47                     48
                      A                      A                      A
 Frequencies --   1405.7326              1476.9408              1479.6925
 Red. masses --      4.2936                 1.7440                 2.8313
 Frc consts  --      4.9990                 2.2415                 3.6524
 IR Inten    --      2.0025                 0.5971                 1.1982

                     49                     50                     51
                      A                      A                      A
 Frequencies --   1500.8275              1519.5487              1559.8818
 Red. masses --      2.1060                 2.0141                 2.8474
 Frc consts  --      2.7949                 2.7400                 4.0821
 IR Inten    --      3.4542                14.2127                 7.2305

                     52                     53                     54
                      A                      A                      A
 Frequencies --   1585.3504              1624.4487              1663.2234
 Red. masses --      3.0686                 6.8293                 5.0868
 Frc consts  --      4.5440                10.6179                 8.2908
 IR Inten    --      1.7536                 0.0148                 4.4207

                     55                     56                     57
                      A                      A                      A
 Frequencies --   1674.5812              1681.0245              3183.6160
 Red. masses --      5.8317                 6.2937                 1.0861
 Frc consts  --      9.6351                10.4787                 6.4860
 IR Inten    --      0.5162                 0.4555                 0.4169

                     58                     59                     60
                      A                      A                      A
 Frequencies --   3186.9963              3187.4495              3196.8264
 Red. masses --      1.0866                 1.0860                 1.0882
 Frc consts  --      6.5026                 6.5010                 6.5524
 IR Inten    --      4.8016                 2.7071                 0.0932

                     61                     62                     63
                      A                      A                      A
 Frequencies --   3198.7507              3206.9085              3212.5293
 Red. masses --      1.0894                 1.0970                 1.0935
 Frc consts  --      6.5676                 6.6473                 6.6492
 IR Inten    --     20.0660                41.9045                44.8016

                     64                     65                     66
                      A                      A                      A
 Frequencies --   3217.6373              3224.5916              3235.2399
 Red. masses --      1.0950                 1.0986                 1.0928
 Frc consts  --      6.6797                 6.7304                 6.7392
 IR Inten    --      3.6260                39.3958                31.7989

 - Thermochemistry -
 -------------------
 Temperature   298.150 Kelvin.  Pressure   1.00000 Atm.
 Atom     1 has atomic number  6 and mass  12.00000

 Molecular mass:   178.07825 amu.
 Principal axes and moments of inertia in atomic units:
                           1         2         3
     Eigenvalues --  1123.273243293.114694416.38792
           X            1.00000   0.00000   0.00000
           Y            0.00000   1.00000   0.00000
           Z            0.00000   0.00000   1.00000
 This molecule is an asymmetric top.
 Rotational symmetry number  1.
 Warning -- assumption of classical behavior for rotation
           may cause significant error
 Rotational temperatures (Kelvin)      0.07711     0.02630     0.01961
 Rotational constants (GHZ):           1.60668     0.54803     0.40865
 Zero-point vibrational energy     517046.5 (Joules/Mol)
                                  123.57709 (Kcal/Mol)
 Warning -- explicit consideration of  14 degrees of freedom as
           vibrations may cause significant error
 Vibrational temperatures:    142.53   150.25   339.08   359.51   363.12
          (Kelvin)            588.84   603.61   643.50   655.34   745.29
                              745.69   803.77   820.03   881.16   934.15
                             1057.90  1065.77  1069.24  1103.76  1132.05
                             1179.98  1224.88  1238.50  1298.66  1299.96
                             1305.62  1396.39  1415.51  1446.70  1470.59
                             1472.11  1489.51  1551.27  1553.95  1633.93
                             1716.61  1740.15  1756.34  1764.96  1805.31
                             1832.71  1870.90  1923.50  1946.80  2014.23
                             2022.54  2124.99  2128.95  2159.36  2186.29
                             2244.32  2280.97  2337.22  2393.01  2409.35
                             2418.62  4580.51  4585.38  4586.03  4599.52
                             4602.29  4614.03  4622.11  4629.46  4639.47
                             4654.79

 Zero-point correction=                           0.196933 (Hartree/Particle)
 Thermal correction to Energy=                    0.206180
 Thermal correction to Enthalpy=                  0.207124
 Thermal correction to Gibbs Free Energy=         0.162209
 Sum of electronic and zero-point Energies=           -539.221938
 Sum of electronic and thermal Energies=              -539.212691
 Sum of electronic and thermal Enthalpies=            -539.211747
 Sum of electronic and thermal Free Energies=         -539.256661

                     E (Thermal)             CV                S
                      KCal/Mol        Cal/Mol-Kelvin    Cal/Mol-Kelvin
 Total                  129.380             39.597             94.530
 Electronic               0.000              0.000              0.000
 Translational            0.889              2.981             41.438
 Rotational               0.889              2.981             31.169
 Vibrational            127.602             33.636             21.923
 Vibration     1          0.604              1.950              3.473
 Vibration     2          0.605              1.946              3.370
 Vibration     3          0.655              1.786              1.835
 Vibration     4          0.663              1.763              1.732
 Vibration     5          0.664              1.759              1.714
 Vibration     6          0.774              1.450              0.929
 Vibration     7          0.782              1.428              0.894
 Vibration     8          0.806              1.367              0.804
 Vibration     9          0.814              1.349              0.779
 Vibration    10          0.873              1.210              0.615
 Vibration    11          0.873              1.210              0.614
 Vibration    12          0.914              1.121              0.527
 Vibration    13          0.926              1.096              0.504
 Vibration    14          0.972              1.006              0.429

 Optimization completed.
    -- Stationary point found.
 Normal termination of Gaussian 16 at Sat Jun 20 13:44:12 2020.
