 Gaussian 16, Revision A.03,
 Gaussian 16:  ES64L-G16RevA.03 25-Dec-2016

 ----------------------
 # opt freq b3lyp/6-31G
 ----------------------

 -------------------
 Title Card Required
 -------------------
 Symbolic Z-matrix:
 Charge =  0 Multiplicity = 1

 SCF Done:  E(RB3LYP) =  -615.632505793     A.U. after   13 cycles
 SCF Done:  E(RB3LYP) =  -615.634732248     A.U. after   11 cycles
 SCF Done:  E(RB3LYP) =  -615.634772349     A.U. after    9 cycles
 SCF Done:  E(RB3LYP) =  -615.634777384     A.U. after    8 cycles
 Optimization completed.
    -- Stationary point found.
 Normal termination of Gaussian 16 at Sun Jun 21 11:42:01 2020.

 -----------------------------------------------------------------
 #N Geom=AllCheck Guess=TCheck SCRF=Check GenChk RB3LYP/6-31G Freq
 -----------------------------------------------------------------

 Structure from the checkpoint file:  "pyrene_opt.chk"
 -------------------
 Title Card Required
 -------------------
 Charge =  0 Multiplicity = 1

                         Standard orientation:
 ---------------------------------------------------------------------
 Center     Atomic      Atomic             Coordinates (Angstroms)
 Number     Number       Type             X           Y           Z
 ---------------------------------------------------------------------
      1          6           0        3.531993    0.000000    0.000371
      2          6           0        2.839528   -1.213627    0.000309
      3          6           0        1.432199   -1.239133    0.000158
      4          6           0        0.714678    0.000000    0.000071
      5          6           0        1.432199    1.239134    0.000131
      6          6           0        2.839525    1.213628    0.000282
      7          6           0        0.682677   -2.469258    0.000090
      8          6           0       -0.714678    0.000000   -0.000076
      9          6           0       -1.432197   -1.239133   -0.000138
     10          6           0       -0.682675   -2.469259   -0.000052
     11          6           0       -2.839526   -1.213628   -0.000280
     12          1           0       -3.385869   -2.152356   -0.000325
     13          6           0       -3.531993   -0.000002   -0.000358
     14          6           0       -2.839526    1.213627   -0.000299
     15          6           0       -1.432200    1.239133   -0.000159
     16          6           0       -0.682677    2.469259   -0.000095
     17          6           0        0.682675    2.469259    0.000042
     18          1           0        1.232739    3.405906    0.000081
     19          1           0       -1.232742    3.405906   -0.000157
     20          1           0        1.232741   -3.405906    0.000154
     21          1           0        4.617366    0.000002    0.000491
     22          1           0        3.385871   -2.152354    0.000381
     23          1           0        3.385873    2.152352    0.000329
     24          1           0       -1.232740   -3.405905   -0.000103
     25          1           0       -4.617366    0.000000   -0.000468
     26          1           0       -3.385873    2.152352   -0.000361
 ---------------------------------------------------------------------

 SCF Done:  E(RB3LYP) =  -615.634777384     A.U. after    1 cycles

 The electronic state is 1-A.
 Alpha  occ. eigenvalues --  -10.19756 -10.19756 -10.19751 -10.19751 -10.19646
 Alpha  occ. eigenvalues --  -10.19615 -10.18991 -10.18990 -10.18931 -10.18931
 Alpha  occ. eigenvalues --  -10.18898 -10.18898 -10.18803 -10.18802 -10.18792
 Alpha  occ. eigenvalues --  -10.18792  -0.89336  -0.85188  -0.83158  -0.79813
 Alpha  occ. eigenvalues --   -0.76745  -0.74941  -0.73152  -0.71152  -0.62969
 Alpha  occ. eigenvalues --   -0.62923  -0.62513  -0.61036  -0.54659  -0.52608
 Alpha  occ. eigenvalues --   -0.51878  -0.50426  -0.49313  -0.47303  -0.44252
 Alpha  occ. eigenvalues --   -0.43676  -0.43524  -0.41925  -0.41044  -0.40038
 Alpha  occ. eigenvalues --   -0.39918  -0.39241  -0.36808  -0.36576  -0.36094
 Alpha  occ. eigenvalues --   -0.34087  -0.32953  -0.31943  -0.29603  -0.27308
 Alpha  occ. eigenvalues --   -0.25480  -0.23005  -0.19676
 Alpha virt. eigenvalues --   -0.05477  -0.02121  -0.00006   0.02380   0.05901
 Alpha virt. eigenvalues --    0.09459   0.10878   0.11396   0.11643   0.13258
 Alpha virt. eigenvalues --    0.14932   0.15088   0.15711   0.16299   0.18504

 Mulliken charges:
               1
     1  C   -0.118067
     2  C   -0.184369
     3  C    0.090344
     4  C   -0.035022
     5  C    0.090345
     6  C   -0.184372
     7  C   -0.148776
     8  C   -0.035022
     9  C    0.090343
    10  C   -0.148775
    11  C   -0.184369
    12  H    0.127633
    13  C   -0.118067
    14  C   -0.184372
    15  C    0.090346
    16  C   -0.148775
    17  C   -0.148775
    18  H    0.129147
    19  H    0.129147
    20  H    0.129147
    21  H    0.125132
    22  H    0.127633
    23  H    0.127633
    24  H    0.129147
    25  H    0.125132
    26  H    0.127633
 Sum of Mulliken charges =   0.00000

 Dipole moment (field-independent basis, Debye):
    X=              0.0000    Y=              0.0000    Z=              0.0000  Tot=              0.0000
 Quadrupole moment (field-independent basis, Debye-Ang):
   XX=            -79.5985   YY=            -79.7942   ZZ=            -97.4009
   XY=              0.0000   XZ=              0.0018   YZ=             -0.0002

  Exact polarizability: 268.793   0.000 190.084   0.023  -0.001  44.352
 Approx polarizability: 526.327   0.000 344.901   0.048  -0.003  62.111

                      1                      2                      3
                      A                      A                      A
 Frequencies --    102.8943               157.3302               219.6477
 Red. masses --      4.6083                 4.2148                 3.9028
 Frc consts  --      0.0287                 0.0615                 0.1109
 IR Inten    --      0.4236                 0.0000                 7.4834

                      4                      5                      6
                      A                      A                      A
 Frequencies --    255.6887               270.7886               365.8710
 Red. masses --      3.4798                 4.5628                 4.5440
 Frc consts  --      0.1340                 0.1971                 0.3584
 IR Inten    --      0.0000                 0.0000                 1.3927

                      7                      8                      9
                      A                      A                      A
 Frequencies --    411.3164               420.6386               471.5587
 Red. masses --      3.5064                 7.9735                 6.6360
 Frc consts  --      0.3495                 0.8312                 0.8694
 IR Inten    --      0.0000                 0.0000                 0.0000

                     10                     11                     12
                      A                      A                      A
 Frequencies --    510.1041               517.4019               519.8623
 Red. masses --      3.6263                 4.8973                 4.3396
 Frc consts  --      0.5559                 0.7724                 0.6910
 IR Inten    --      1.3884                 2.5403                 0.0000

                     13                     14                     15
                      A                      A                      A
 Frequencies --    525.7427               550.8543               569.0065
 Red. masses --      3.7182                 3.0029                 7.0575
 Frc consts  --      0.6055                 0.5369                 1.3463
 IR Inten    --      0.0000                 0.0000                 2.4443

                     16                     17                     18
                      A                      A                      A
 Frequencies --    599.0558               599.9742               704.0652
 Red. masses --      3.3234                 6.4296                 4.0721
 Frc consts  --      0.7027                 1.3636                 1.1893
 IR Inten    --      0.0000                 0.0000                 0.0000

                     19                     20                     21
                      A                      A                      A
 Frequencies --    718.5288               738.0900               766.4157
 Red. masses --      7.0818                 2.8245                 5.2602
 Frc consts  --      2.1542                 0.9066                 1.8205
 IR Inten    --      0.0803                31.8018                 0.0000

                     22                     23                     24
                      A                      A                      A
 Frequencies --    778.0918               801.5480               832.9130
 Red. masses --      1.1744                 1.4968                 5.8187
 Frc consts  --      0.4189                 0.5666                 2.3783
 IR Inten    --     10.1608                 0.0000                 0.0000

                     25                     26                     27
                      A                      A                      A
 Frequencies --    837.9769               850.6441               855.4841
 Red. masses --      1.3661                 4.7404                 3.7398
 Frc consts  --      0.5652                 2.0210                 1.6126
 IR Inten    --      0.0000                 3.1338                 0.0000

                     28                     29                     30
                      A                      A                      A
 Frequencies --    884.1063               928.4094               944.7111
 Red. masses --      1.7559                 1.3898                 1.4698
 Frc consts  --      0.8086                 0.7058                 0.7729
 IR Inten    --    132.7876                 0.0000                 0.0000

                     31                     32                     33
                      A                      A                      A
 Frequencies --    994.0995               998.6670              1008.2014
 Red. masses --      4.6528                 1.2988                 1.3389
 Frc consts  --      2.7091                 0.7632                 0.8018
 IR Inten    --      0.1005                 0.0000                 0.0000

                     34                     35                     36
                      A                      A                      A
 Frequencies --   1009.4549              1021.2735              1031.9806
 Red. masses --      1.3501                 1.3872                 7.4828
 Frc consts  --      0.8106                 0.8525                 4.6952
 IR Inten    --      3.5911                 0.0000                 0.6927

                     37                     38                     39
                      A                      A                      A
 Frequencies --   1108.7739              1135.6623              1150.5957
 Red. masses --      2.2510                 1.7638                 2.5152
 Frc consts  --      1.6305                 1.3403                 1.9619
 IR Inten    --      0.0000                 5.4206                 0.0000

                     40                     41                     42
                      A                      A                      A
 Frequencies --   1195.9475              1207.4305              1229.6172
 Red. masses --      1.3961                 1.2803                 1.2819
 Frc consts  --      1.1765                 1.0997                 1.1419
 IR Inten    --      0.0000                 1.4642                 0.0000

                     43                     44                     45
                      A                      A                      A
 Frequencies --   1235.4397              1257.0911              1294.1016
 Red. masses --      1.2235                 2.5351                 2.5782
 Frc consts  --      1.1003                 2.3603                 2.5439
 IR Inten    --     11.6969                 0.0468                 0.0000

                     46                     47                     48
                      A                      A                      A
 Frequencies --   1297.3848              1301.4819              1376.0392
 Red. masses --      1.6161                 1.7277                 3.9184
 Frc consts  --      1.6027                 1.7243                 4.3714
 IR Inten    --      0.0000                 4.0639                 6.2091

                     49                     50                     51
                      A                      A                      A
 Frequencies --   1379.2401              1427.0746              1452.5811
 Red. masses --      3.0620                 8.1605                 5.9367
 Frc consts  --      3.4319                 9.7918                 7.3803
 IR Inten    --      0.0000                 0.0000                 0.0000

                     52                     53                     54
                      A                      A                      A
 Frequencies --   1469.7283              1487.1588              1488.3100
 Red. masses --      1.5711                 3.0647                 2.3667
 Frc consts  --      1.9995                 3.9934                 3.0888
 IR Inten    --      0.0000                12.1691                 1.7406

                     55                     56                     57
                      A                      A                      A
 Frequencies --   1505.0898              1538.5412              1559.6540
 Red. masses --      2.4999                 3.9193                 2.8826
 Frc consts  --      3.3365                 5.4660                 4.1313
 IR Inten    --      0.0188                 3.3804                 0.0000

                     58                     59                     60
                      A                      A                      A
 Frequencies --   1616.3536              1642.3906              1655.0227
 Red. masses --      4.0589                 7.6776                 5.4244
 Frc consts  --      6.2478                12.2019                 8.7540
 IR Inten    --      0.0000                 0.0000                12.9389

                     61                     62                     63
                      A                      A                      A
 Frequencies --   1664.4918              1689.6423              3184.1151
 Red. masses --      5.9352                 7.0633                 1.0860
 Frc consts  --      9.6883                11.8809                 6.4875
 IR Inten    --      4.8753                 0.0000                 3.3218

                     64                     65                     66
                      A                      A                      A
 Frequencies --   3184.2747              3187.4197              3187.7010
 Red. masses --      1.0862                 1.0862                 1.0860
 Frc consts  --      6.4890                 6.5016                 6.5019
 IR Inten    --      0.0001                 0.0000                 0.0230

                     67                     68                     69
                      A                      A                      A
 Frequencies --   3195.8612              3196.4265              3206.5478
 Red. masses --      1.0910                 1.0907                 1.0968
 Frc consts  --      6.5653                 6.5655                 6.6446
 IR Inten    --     25.7361                 0.0000                86.9131

                     70                     71                     72
                      A                      A                      A
 Frequencies --   3206.7649              3216.5515              3217.1631
 Red. masses --      1.0970                 1.0975                 1.0972
 Frc consts  --      6.6464                 6.6901                 6.6911
 IR Inten    --      0.0007                90.2619                 0.0000

 - Thermochemistry -
 -------------------
 Temperature   298.150 Kelvin.  Pressure   1.00000 Atm.
 Atom     1 has atomic number  6 and mass  12.00000

 Molecular mass:   202.07825 amu.
 Principal axes and moments of inertia in atomic units:
                           1         2         3
     Eigenvalues --  1794.486223266.882265061.36848
           X            1.00000   0.00000  -0.00010
           Y            0.00000   1.00000   0.00001
           Z            0.00010  -0.00001   1.00000
 This molecule is an asymmetric top.
 Rotational symmetry number  1.
 Warning -- assumption of classical behavior for rotation
           may cause significant error
 Rotational temperatures (Kelvin)      0.04827     0.02651     0.01711
 Rotational constants (GHZ):           1.00571     0.55244     0.35657
 Zero-point vibrational energy     551000.4 (Joules/Mol)
                                  131.69225 (Kcal/Mol)
 Warning -- explicit consideration of  17 degrees of freedom as
           vibrations may cause significant error
 Vibrational temperatures:    148.04   226.36   316.02   367.88   389.60
          (Kelvin)            526.41   591.79   605.21   678.47   733.93
                              744.43   747.97   756.43   792.56   818.67
                              861.91   863.23  1012.99  1033.80  1061.95
                             1102.70  1119.50  1153.25  1198.38  1205.66
                             1223.89  1230.85  1272.03  1335.77  1359.23
                             1430.29  1436.86  1450.58  1452.38  1469.38
                             1484.79  1595.28  1633.96  1655.45  1720.70
                             1737.22  1769.14  1777.52  1808.67  1861.92
                             1866.65  1872.54  1979.81  1984.42  2053.24
                             2089.94  2114.61  2139.69  2141.35  2165.49
                             2213.62  2243.99  2325.57  2363.03  2381.21
                             2394.83  2431.02  4581.23  4581.46  4585.99
                             4586.39  4598.13  4598.94  4613.51  4613.82
                             4627.90  4628.78

 Zero-point correction=                           0.209865 (Hartree/Particle)
 Thermal correction to Energy=                    0.219677
 Thermal correction to Enthalpy=                  0.220621
 Thermal correction to Gibbs Free Energy=         0.174725
 Sum of electronic and zero-point Energies=           -615.424912
 Sum of electronic and thermal Energies=              -615.415100
 Sum of electronic and thermal Enthalpies=            -615.414156
 Sum of electronic and thermal Free Energies=         -615.460053

                     E (Thermal)             CV                S
                      KCal/Mol        Cal/Mol-Kelvin    Cal/Mol-Kelvin
 Total                  137.850             43.551             96.598
 Electronic               0.000              0.000              0.000
 Translational            0.889              2.981             41.815
 Rotational               0.889              2.981             31.762
 Vibrational            136.072             37.589             23.021
 Vibration     1          0.605              1.947              3.399
 Vibration     2          0.621              1.894              2.582
 Vibration     3          0.647              1.811              1.962
 Vibration     4          0.666              1.753              1.691
 Vibration     5          0.674              1.727              1.591
 Vibration     6          0.739              1.542              1.097
 Vibration     7          0.775              1.446              0.922
 Vibration     8          0.783              1.425              0.890
 Vibration     9          0.829              1.313              0.733
 Vibration    10          0.865              1.228              0.633
 Vibration    11          0.872              1.211              0.616
 Vibration    12          0.875              1.206              0.610
 Vibration    13          0.881              1.193              0.597
 Vibration    14          0.906              1.138              0.542
 Vibration    15          0.925              1.098              0.506
 Vibration    16          0.957              1.034              0.451
 Vibration    17          0.958              1.032              0.450

 Optimization completed.
    -- Stationary point found.
 Normal termination of Gaussian 16 at Sun Jun 21 11:47:53 2020.
