 Gaussian 16, Revision A.03,
 Gaussian 16:  ES64L-G16RevA.03 25-Dec-2016

 ----------------------
 # opt freq b3lyp/6-31G
 ----------------------

 -----
 6-31G
 -----
 Symbolic Z-matrix:
 Charge =  0 Multiplicity = 1

 SCF Done:  E(RB3LYP) =  -692.739255704     A.U. after   16 cycles
 SCF Done:  E(RB3LYP) =  -692.846940423     A.U. after   13 cycles
 SCF Done:  E(RB3LYP) =  -692.979141074     A.U. after   14 cycles
 SCF Done:  E(RB3LYP) =  -693.008248876     A.U. after   14 cycles
 SCF Done:  E(RB3LYP) =  -693.008431695     A.U. after   14 cycles
 SCF Done:  E(RB3LYP) =  -693.009628275     A.U. after   13 cycles
 SCF Done:  E(RB3LYP) =  -693.008881777     A.U. after   13 cycles
 SCF Done:  E(RB3LYP) =  -693.010159644     A.U. after   12 cycles
 SCF Done:  E(RB3LYP) =  -693.010548942     A.U. after   11 cycles
 SCF Done:  E(RB3LYP) =  -693.009956236     A.U. after   12 cycles
 SCF Done:  E(RB3LYP) =  -693.010559854     A.U. after   11 cycles
 SCF Done:  E(RB3LYP) =  -693.010581540     A.U. after   10 cycles
 SCF Done:  E(RB3LYP) =  -693.010588940     A.U. after    9 cycles
 SCF Done:  E(RB3LYP) =  -693.010590235     A.U. after    8 cycles
 SCF Done:  E(RB3LYP) =  -693.010590406     A.U. after    7 cycles
 SCF Done:  E(RB3LYP) =  -693.010590342     A.U. after    8 cycles
 SCF Done:  E(RB3LYP) =  -693.010590405     A.U. after    8 cycles
 Optimization completed.
    -- Stationary point found.
 Normal termination of Gaussian 16 at Sun Jun 21 16:36:31 2020.

 -----------------------------------------------------------------
 #N Geom=AllCheck Guess=TCheck SCRF=Check GenChk RB3LYP/6-31G Freq
 -----------------------------------------------------------------

 Structure from the checkpoint file:  "tetracene_opt.chk"
 -----
 6-31G
 -----
 Charge =  0 Multiplicity = 1

                         Standard orientation:
 ---------------------------------------------------------------------
 Center     Atomic      Atomic             Coordinates (Angstroms)
 Number     Number       Type             X           Y           Z
 ---------------------------------------------------------------------
      1          6           0       -2.456045   -0.727694    0.000016
      2          6           0       -3.719098   -1.412348   -0.000015
      3          6           0       -1.237791   -1.409665    0.000098
      4          6           0       -4.900673   -0.716545   -0.000112
      5          6           0       -1.237804    1.409668    0.000020
      6          6           0        0.000012   -0.728010   -0.000010
      7          6           0       -4.900679    0.716537   -0.000122
      8          6           0        0.000003    0.728010    0.000033
      9          6           0        1.237797   -1.409664    0.000032
     10          6           0        2.456051   -0.727695    0.000064
     11          6           0        2.456047    0.727693    0.000052
     12          6           0        1.237797    1.409661    0.000117
     13          6           0       -2.456055    0.727699    0.000059
     14          6           0       -3.719109    1.412346    0.000006
     15          6           0        3.719099   -1.412347    0.000003
     16          6           0        4.900676   -0.716537   -0.000160
     17          6           0        4.900671    0.716542   -0.000063
     18          6           0        3.719095    1.412350   -0.000047
     19          1           0       -3.716531   -2.498763   -0.000014
     20          1           0       -1.237428   -2.496832    0.000288
     21          1           0       -5.847723   -1.246683   -0.000042
     22          1           0       -1.237443    2.496835    0.000066
     23          1           0       -5.847733    1.246666   -0.000219
     24          1           0        1.237454   -2.496830    0.000152
     25          1           0        1.237459    2.496828    0.000158
     26          1           0       -3.716551    2.498761    0.000067
     27          1           0        3.716553   -2.498762    0.000034
     28          1           0        5.847725   -1.246675   -0.000231
     29          1           0        5.847720    1.246683   -0.000043
     30          1           0        3.716542    2.498764   -0.000049
 ---------------------------------------------------------------------

 SCF Done:  E(RB3LYP) =  -693.010590405     A.U. after    1 cycles

 The electronic state is 1-A.
 Alpha  occ. eigenvalues --  -10.19877 -10.19852 -10.19824 -10.19824 -10.19799
 Alpha  occ. eigenvalues --  -10.19799 -10.18923 -10.18923 -10.18901 -10.18901
 Alpha  occ. eigenvalues --  -10.18862 -10.18861 -10.18861 -10.18860 -10.18849
 Alpha  occ. eigenvalues --  -10.18849 -10.18843 -10.18843  -0.88638  -0.86575
 Alpha  occ. eigenvalues --   -0.83353  -0.79074  -0.79030  -0.76961  -0.73930
 Alpha  occ. eigenvalues --   -0.73722  -0.69539  -0.66029  -0.62120  -0.60696
 Alpha  occ. eigenvalues --   -0.60338  -0.59185  -0.56041  -0.52635  -0.50451
 Alpha  occ. eigenvalues --   -0.49651  -0.49549  -0.45534  -0.45326  -0.45190
 Alpha  occ. eigenvalues --   -0.44313  -0.42536  -0.41771  -0.41500  -0.40887
 Alpha  occ. eigenvalues --   -0.40415  -0.40056  -0.37832  -0.36649  -0.36463
 Alpha  occ. eigenvalues --   -0.33827  -0.33750  -0.33584  -0.32480  -0.30480
 Alpha  occ. eigenvalues --   -0.28668  -0.27688  -0.23772  -0.23386  -0.17936
 Alpha virt. eigenvalues --   -0.07633  -0.01555  -0.01194   0.02924   0.04682
 Alpha virt. eigenvalues --    0.05066   0.10155   0.10174   0.10497   0.11979
 Alpha virt. eigenvalues --    0.12854   0.12935   0.14932   0.16038   0.17026

 Mulliken charges:
               1
     1  C    0.075173
     2  C   -0.144710
     3  C   -0.225886
     4  C   -0.135991
     5  C   -0.225884
     6  C    0.091504
     7  C   -0.135992
     8  C    0.091509
     9  C   -0.225888
    10  C    0.075172
    11  C    0.075176
    12  C   -0.225896
    13  C    0.075172
    14  C   -0.144706
    15  C   -0.144712
    16  C   -0.135989
    17  C   -0.135991
    18  C   -0.144709
    19  H    0.129188
    20  H    0.131107
    21  H    0.125367
    22  H    0.131107
    23  H    0.125367
    24  H    0.131108
    25  H    0.131107
    26  H    0.129189
    27  H    0.129189
    28  H    0.125367
    29  H    0.125366
    30  H    0.129189
 Sum of Mulliken charges =   0.00000

 Dipole moment (field-independent basis, Debye):
    X=              0.0000    Y=              0.0000    Z=              0.0002  Tot=              0.0002
 Quadrupole moment (field-independent basis, Debye-Ang):
   XX=            -89.2602   YY=            -90.5622   ZZ=           -110.4253
   XY=             -0.0001   XZ=             -0.0002   YZ=             -0.0004

  Exact polarizability: 409.603   0.000 191.254   0.000  -0.001  50.698
 Approx polarizability: 661.509   0.000 385.406   0.001  -0.002  70.674

                      1                      2                      3
                      A                      A                      A
 Frequencies --     57.4234                93.1765               154.4331
 Red. masses --      5.5374                 3.8154                 5.3068
 Frc consts  --      0.0108                 0.0195                 0.0746
 IR Inten    --      0.5692                 0.0000                 0.0000

                      4                      5                      6
                      A                      A                      A
 Frequencies --    165.9606               198.4072               278.7543
 Red. masses --      4.9973                 3.8705                 5.0259
 Frc consts  --      0.0811                 0.0898                 0.2301
 IR Inten    --      1.1387                 0.0000                 0.5927

                      7                      8                      9
                      A                      A                      A
 Frequencies --    311.0398               322.7636               327.2056
 Red. masses --      4.7211                 6.9162                 3.9125
 Frc consts  --      0.2691                 0.4245                 0.2468
 IR Inten    --      0.0000                 0.0000                 0.0000

                     10                     11                     12
                      A                      A                      A
 Frequencies --    388.4396               457.0562               484.1695
 Red. masses --      3.3270                 4.2527                 2.4119
 Frc consts  --      0.2958                 0.5234                 0.3331
 IR Inten    --      0.0000                 0.0556                23.3890

                     13                     14                     15
                      A                      A                      A
 Frequencies --    487.8215               493.1180               517.3445
 Red. masses --      2.4865                 3.1280                 7.5029
 Frc consts  --      0.3486                 0.4482                 1.1831
 IR Inten    --      0.0000                 0.7982                 0.0000

                     16                     17                     18
                      A                      A                      A
 Frequencies --    532.3344               576.0391               580.4676
 Red. masses --      3.6206                 6.9122                 3.3329
 Frc consts  --      0.6045                 1.3514                 0.6617
 IR Inten    --      0.0000                 8.7930                 0.0000

                     19                     20                     21
                      A                      A                      A
 Frequencies --    632.5180               651.9253               662.6966
 Red. masses --      6.2852                 6.7541                 6.8899
 Frc consts  --      1.4815                 1.6913                 1.7828
 IR Inten    --      1.6843                 0.0000                 1.3237

                     22                     23                     24
                      A                      A                      A
 Frequencies --    746.8822               763.5104               765.9485
 Red. masses --      4.4483                 1.2134                 4.8441
 Frc consts  --      1.4620                 0.4167                 1.6744
 IR Inten    --      0.0000                 0.0000                 2.0339

                     25                     26                     27
                      A                      A                      A
 Frequencies --    772.5482               778.2168               782.4397
 Red. masses --      6.2252                 1.3022                 3.0093
 Frc consts  --      2.1890                 0.4647                 1.0855
 IR Inten    --      0.0000                88.7780                 0.0000

                     28                     29                     30
                      A                      A                      A
 Frequencies --    792.3986               804.2626               867.1556
 Red. masses --      2.6066                 5.8054                 1.2656
 Frc consts  --      0.9643                 2.2125                 0.5607
 IR Inten    --      0.0000                 0.0000                 0.0000

                     31                     32                     33
                      A                      A                      A
 Frequencies --    876.5087               878.3450               883.6786
 Red. masses --      2.9860                 1.4218                 1.4375
 Frc consts  --      1.3516                 0.6463                 0.6614
 IR Inten    --      0.0000                 0.0000                 0.0000

                     34                     35                     36
                      A                      A                      A
 Frequencies --    921.3073               931.0814               940.9937
 Red. masses --      1.6110                 5.9091                 1.5257
 Frc consts  --      0.8057                 3.0182                 0.7959
 IR Inten    --      0.0000                 0.0000                88.0926

                     37                     38                     39
                      A                      A                      A
 Frequencies --    956.0310               968.0779               992.6342
 Red. masses --      1.8056                 5.1342                 1.3524
 Frc consts  --      0.9723                 2.8350                 0.7851
 IR Inten    --      0.0000                 1.8654                 0.0000

                     40                     41                     42
                      A                      A                      A
 Frequencies --    995.1821              1024.7412              1025.3422
 Red. masses --      1.3800                 1.3349                 1.3436
 Frc consts  --      0.8053                 0.8259                 0.8322
 IR Inten    --     13.8483                 0.0000                 0.0000

                     43                     44                     45
                      A                      A                      A
 Frequencies --   1038.2351              1038.8024              1168.1195
 Red. masses --      2.4989                 2.4882                 2.1842
 Frc consts  --      1.5870                 1.5820                 1.7560
 IR Inten    --      4.3974                 0.0000                 5.2209

                     46                     47                     48
                      A                      A                      A
 Frequencies --   1172.9465              1194.5491              1219.3098
 Red. masses --      1.9921                 1.6418                 1.1625
 Frc consts  --      1.6148                 1.3803                 1.0183
 IR Inten    --      0.0000                 3.7943                 0.0000

                     49                     50                     51
                      A                      A                      A
 Frequencies --   1220.0827              1242.8345              1255.0262
 Red. masses --      1.1690                 1.2070                 1.6042
 Frc consts  --      1.0253                 1.0984                 1.4888
 IR Inten    --      0.4561                 0.0000                 2.1394

                     52                     53                     54
                      A                      A                      A
 Frequencies --   1257.7695              1327.8455              1332.7577
 Red. masses --      1.6448                 1.6309                 2.7193
 Frc consts  --      1.5331                 1.6942                 2.8458
 IR Inten    --      0.0000                 0.0000                10.3943

                     55                     56                     57
                      A                      A                      A
 Frequencies --   1343.0642              1346.7112              1386.4196
 Red. masses --      1.7473                 3.3638                 2.2616
 Frc consts  --      1.8570                 3.5944                 2.5613
 IR Inten    --      5.6188                 0.7301                 0.0000

                     58                     59                     60
                      A                      A                      A
 Frequencies --   1397.3528              1436.3861              1452.4396
 Red. masses --      2.6556                 9.4062                 1.5619
 Frc consts  --      3.0551                11.4343                 1.9413
 IR Inten    --      8.0679                 0.0000                 1.7134

                     61                     62                     63
                      A                      A                      A
 Frequencies --   1455.5223              1456.5235              1507.3964
 Red. masses --      3.6475                 6.2148                 2.7570
 Frc consts  --      4.5529                 7.7680                 3.6909
 IR Inten    --      0.0000                 0.7907                 0.0000

                     64                     65                     66
                      A                      A                      A
 Frequencies --   1509.3816              1529.9840              1579.7230
 Red. masses --      1.8792                 2.2238                 4.0612
 Frc consts  --      2.5225                 3.0670                 5.9712
 IR Inten    --      0.0000                 3.8223                 0.0000

                     67                     68                     69
                      A                      A                      A
 Frequencies --   1593.8282              1603.2042              1627.2679
 Red. masses --      7.1867                 5.5476                 4.9090
 Frc consts  --     10.7562                 8.4010                 7.6587
 IR Inten    --      0.0000                 3.4438                 1.2518

                     70                     71                     72
                      A                      A                      A
 Frequencies --   1669.6987              1681.7017              1695.9256
 Red. masses --      6.1502                 5.4454                 6.0369
 Frc consts  --     10.1022                 9.0735                10.2300
 IR Inten    --      0.0000                 0.0000                 8.6582

                     73                     74                     75
                      A                      A                      A
 Frequencies --   3180.7422              3182.7089              3183.5031
 Red. masses --      1.0898                 1.0910                 1.0885
 Frc consts  --      6.4959                 6.5113                 6.4998
 IR Inten    --      0.0000                 1.8479                13.8844

                     76                     77                     78
                      A                      A                      A
 Frequencies --   3185.6745              3186.2146              3186.2162
 Red. masses --      1.0860                 1.0887                 1.0884
 Frc consts  --      6.4933                 6.5117                 6.5101
 IR Inten    --      0.0001                13.9312                17.7789

                     79                     80                     81
                      A                      A                      A
 Frequencies --   3190.1822              3191.1420              3206.2019
 Red. masses --      1.0876                 1.0879                 1.0945
 Frc consts  --      6.5217                 6.5276                 6.6291
 IR Inten    --      1.4050                 0.0000                 0.0022

                     82                     83                     84
                      A                      A                      A
 Frequencies --   3206.2843              3221.3576              3221.7414
 Red. masses --      1.0945                 1.0986                 1.0986
 Frc consts  --      6.6295                 6.7169                 6.7184
 IR Inten    --     78.7885               113.3001                 0.0015

 - Thermochemistry -
 -------------------
 Temperature   298.150 Kelvin.  Pressure   1.00000 Atm.
 Atom     1 has atomic number  6 and mass  12.00000

 Molecular mass:   228.09390 amu.
 Principal axes and moments of inertia in atomic units:
                           1         2         3
     Eigenvalues --  1108.746838497.409459606.15627
           X            1.00000   0.00000   0.00000
           Y            0.00000   1.00000   0.00000
           Z            0.00000   0.00000   1.00000
 This molecule is an asymmetric top.
 Rotational symmetry number  1.
 Warning -- assumption of classical behavior for rotation
           may cause significant error
 Rotational temperatures (Kelvin)      0.07812     0.01019     0.00902
 Rotational constants (GHZ):           1.62773     0.21239     0.18787
 Zero-point vibrational energy     639542.5 (Joules/Mol)
                                  152.85433 (Kcal/Mol)
 Warning -- explicit consideration of  18 degrees of freedom as
           vibrations may cause significant error
 Vibrational temperatures:     82.62   134.06   222.19   238.78   285.46
          (Kelvin)            401.07   447.52   464.38   470.78   558.88
                              657.60   696.61   701.87   709.49   744.34
                              765.91   828.79   835.16   910.05   937.98
                              953.47  1074.60  1098.52  1102.03  1111.52
                             1119.68  1125.76  1140.08  1157.15  1247.64
                             1261.10  1263.74  1271.42  1325.56  1339.62
                             1353.88  1375.52  1392.85  1428.18  1431.85
                             1474.37  1475.24  1493.79  1494.60  1680.66
                             1687.61  1718.69  1754.31  1755.43  1788.16
                             1805.70  1809.65  1910.47  1917.54  1932.37
                             1937.62  1994.75  2010.48  2066.64  2089.74
                             2094.17  2095.61  2168.81  2171.66  2201.31
                             2272.87  2293.16  2306.65  2341.28  2402.32
                             2419.59  2440.06  4576.38  4579.21  4580.35
                             4583.48  4584.25  4584.25  4589.96  4591.34
                             4613.01  4613.13  4634.82  4635.37

 Zero-point correction=                           0.243589 (Hartree/Particle)
 Thermal correction to Energy=                    0.255473
 Thermal correction to Enthalpy=                  0.256417
 Thermal correction to Gibbs Free Energy=         0.205499
 Sum of electronic and zero-point Energies=           -692.767002
 Sum of electronic and thermal Energies=              -692.755117
 Sum of electronic and thermal Enthalpies=            -692.754173
 Sum of electronic and thermal Free Energies=         -692.805091

                     E (Thermal)             CV                S
                      KCal/Mol        Cal/Mol-Kelvin    Cal/Mol-Kelvin
 Total                  160.312             51.365            107.165
 Electronic               0.000              0.000              0.000
 Translational            0.889              2.981             42.176
 Rotational               0.889              2.981             32.870
 Vibrational            158.534             45.403             32.119
 Vibration     1          0.596              1.975              4.544
 Vibration     2          0.602              1.954              3.592
 Vibration     3          0.620              1.898              2.617
 Vibration     4          0.624              1.884              2.481
 Vibration     5          0.637              1.842              2.148
 Vibration     6          0.679              1.713              1.541
 Vibration     7          0.700              1.653              1.357
 Vibration     8          0.708              1.630              1.296
 Vibration     9          0.711              1.621              1.274
 Vibration    10          0.757              1.495              1.006
 Vibration    11          0.815              1.345              0.775
 Vibration    12          0.840              1.285              0.699
 Vibration    13          0.844              1.277              0.689
 Vibration    14          0.849              1.265              0.676
 Vibration    15          0.872              1.212              0.616
 Vibration    16          0.887              1.178              0.582
 Vibration    17          0.932              1.083              0.493
 Vibration    18          0.937              1.074              0.484

 Optimization completed.
    -- Stationary point found.
 Normal termination of Gaussian 16 at Sun Jun 21 16:42:05 2020.
