 Gaussian 16, Revision A.03,
 Gaussian 16:  ES64L-G16RevA.03 25-Dec-2016

 ----------------------
 # opt freq b3lyp/6-31G
 ----------------------

 -----
 6-31G
 -----
 Symbolic Z-matrix:
 Charge =  0 Multiplicity = 1

 SCF Done:  E(RB3LYP) =  -692.751189165     A.U. after   16 cycles
 SCF Done:  E(RB3LYP) =  -692.859535953     A.U. after   13 cycles
 SCF Done:  E(RB3LYP) =  -692.993121043     A.U. after   13 cycles
 SCF Done:  E(RB3LYP) =  -693.021953729     A.U. after   13 cycles
 SCF Done:  E(RB3LYP) =  -693.022122918     A.U. after   13 cycles
 SCF Done:  E(RB3LYP) =  -693.023047187     A.U. after   12 cycles
 SCF Done:  E(RB3LYP) =  -693.022482272     A.U. after   13 cycles
 SCF Done:  E(RB3LYP) =  -693.023667375     A.U. after   12 cycles
 SCF Done:  E(RB3LYP) =  -693.024090400     A.U. after   11 cycles
 SCF Done:  E(RB3LYP) =  -693.023463721     A.U. after   12 cycles
 SCF Done:  E(RB3LYP) =  -693.024108823     A.U. after   11 cycles
 SCF Done:  E(RB3LYP) =  -693.024111817     A.U. after   10 cycles
 SCF Done:  E(RB3LYP) =  -693.024122650     A.U. after   10 cycles
 SCF Done:  E(RB3LYP) =  -693.024125206     A.U. after    8 cycles
 SCF Done:  E(RB3LYP) =  -693.024125399     A.U. after    7 cycles
 SCF Done:  E(RB3LYP) =  -693.024125369     A.U. after    8 cycles
 SCF Done:  E(RB3LYP) =  -693.024125409     A.U. after    7 cycles
 Optimization completed.
    -- Stationary point found.
 Normal termination of Gaussian 16 at Sun Jun 21 18:13:15 2020.

 -----------------------------------------------------------------
 #N Geom=AllCheck Guess=TCheck SCRF=Check GenChk RB3LYP/6-31G Freq
 -----------------------------------------------------------------

 Structure from the checkpoint file:  "tetraphene_opt.chk"
 -----
 6-31G
 -----
 Charge =  0 Multiplicity = 1

                         Standard orientation:
 ---------------------------------------------------------------------
 Center     Atomic      Atomic             Coordinates (Angstroms)
 Number     Number       Type             X           Y           Z
 ---------------------------------------------------------------------
      1          6           0        0.344440   -0.061259   -0.000102
      2          6           0        1.777037   -0.379759   -0.000080
      3          6           0       -0.652750   -1.038962   -0.000294
      4          6           0        2.727712    0.687075   -0.000198
      5          6           0        2.268219   -1.706361    0.000295
      6          6           0       -1.420413    1.653510    0.000136
      7          6           0       -2.026731   -0.718246   -0.000156
      8          6           0        2.270338    2.056301   -0.000180
      9          6           0        4.111085    0.391208   -0.000139
     10          6           0        3.631497   -1.974999    0.000235
     11          6           0       -2.425157    0.667417    0.000125
     12          6           0        4.563544   -0.919997    0.000216
     13          6           0       -3.042142   -1.724020   -0.000270
     14          6           0       -4.375794   -1.381903   -0.000098
     15          6           0       -4.768601   -0.011742    0.000215
     16          6           0       -3.818657    0.984660    0.000338
     17          6           0       -0.061942    1.327318    0.000011
     18          6           0        0.945240    2.360356   -0.000063
     19          1           0       -0.387146   -2.090494   -0.000666
     20          1           0        1.575398   -2.539700    0.000629
     21          1           0       -1.710165    2.701384    0.000179
     22          1           0        3.018092    2.844113   -0.000305
     23          1           0        4.819359    1.215035   -0.000357
     24          1           0        3.977472   -3.003734    0.000487
     25          1           0        5.627680   -1.132653    0.000313
     26          1           0       -2.740591   -2.767831   -0.000663
     27          1           0       -5.137605   -2.154932   -0.000405
     28          1           0       -5.824291    0.240223    0.000314
     29          1           0       -4.114267    2.030068    0.000545
     30          1           0        0.614522    3.394942   -0.000017
 ---------------------------------------------------------------------

 SCF Done:  E(RB3LYP) =  -693.024125409     A.U. after    1 cycles

 The electronic state is 1-A.
 Alpha  occ. eigenvalues --  -10.20104 -10.20006 -10.19820 -10.19729 -10.19721
 Alpha  occ. eigenvalues --  -10.19672 -10.18904 -10.18880 -10.18869 -10.18852
 Alpha  occ. eigenvalues --  -10.18834 -10.18825 -10.18821 -10.18812 -10.18807
 Alpha  occ. eigenvalues --  -10.18790 -10.18785 -10.18756  -0.88710  -0.86562
 Alpha  occ. eigenvalues --   -0.83298  -0.80131  -0.78249  -0.76301  -0.74715
 Alpha  occ. eigenvalues --   -0.72471  -0.70818  -0.64705  -0.63033  -0.61516
 Alpha  occ. eigenvalues --   -0.59946  -0.59000  -0.55309  -0.52406  -0.51686
 Alpha  occ. eigenvalues --   -0.50151  -0.48244  -0.46611  -0.45886  -0.44217
 Alpha  occ. eigenvalues --   -0.43510  -0.42881  -0.42620  -0.41410  -0.40688
 Alpha  occ. eigenvalues --   -0.40491  -0.38944  -0.37776  -0.37753  -0.35730
 Alpha  occ. eigenvalues --   -0.34412  -0.33785  -0.33258  -0.32285  -0.30706
 Alpha  occ. eigenvalues --   -0.28854  -0.26674  -0.24770  -0.22032  -0.19678
 Alpha virt. eigenvalues --   -0.05682  -0.03220  -0.00125   0.01650   0.04189
 Alpha virt. eigenvalues --    0.06741   0.09631   0.10101   0.10202   0.11662
 Alpha virt. eigenvalues --    0.12846   0.13155   0.15401   0.16099   0.17147

 Mulliken charges:
               1
     1  C    0.038341
     2  C    0.020945
     3  C   -0.210401
     4  C    0.057879
     5  C   -0.137974
     6  C   -0.245726
     7  C    0.074542
     8  C   -0.154406
     9  C   -0.178331
    10  C   -0.135742
    11  C    0.085098
    12  C   -0.117831
    13  C   -0.155335
    14  C   -0.132635
    15  C   -0.134743
    16  C   -0.148242
    17  C    0.080391
    18  C   -0.151326
    19  H    0.136125
    20  H    0.131527
    21  H    0.131659
    22  H    0.129252
    23  H    0.128827
    24  H    0.124959
    25  H    0.125937
    26  H    0.128348
    27  H    0.125048
    28  H    0.125264
    29  H    0.129031
    30  H    0.129518
 Sum of Mulliken charges =   0.00000

 Dipole moment (field-independent basis, Debye):
    X=              0.0090    Y=             -0.0524    Z=             -0.0002  Tot=              0.0532
 Quadrupole moment (field-independent basis, Debye-Ang):
   XX=            -89.4388   YY=            -90.2917   ZZ=           -110.3738
   XY=             -0.0679   XZ=              0.0009   YZ=              0.0007

  Exact polarizability: 356.732  -0.411 200.224  -0.003   0.003  50.425
 Approx polarizability: 571.461   0.873 372.825  -0.012   0.008  70.302

                      1                      2                      3
                      A                      A                      A
 Frequencies --     67.5541                71.0530               149.6541
 Red. masses --      4.8263                 3.9266                 4.3498
 Frc consts  --      0.0130                 0.0117                 0.0574
 IR Inten    --      0.5078                 0.0071                 0.4390

                      4                      5                      6
                      A                      A                      A
 Frequencies --    167.5460               191.9413               277.9874
 Red. masses --      5.0043                 4.1874                 3.8929
 Frc consts  --      0.0828                 0.0909                 0.1772
 IR Inten    --      0.2963                 0.8428                 0.7634

                      7                      8                      9
                      A                      A                      A
 Frequencies --    297.3191               312.6669               365.6755
 Red. masses --      4.2282                 5.5989                 5.6799
 Frc consts  --      0.2202                 0.3225                 0.4475
 IR Inten    --      0.3441                 0.6890                 0.2193

                     10                     11                     12
                      A                      A                      A
 Frequencies --    406.6840               439.5887               464.5430
 Red. masses --      3.2766                 3.0686                 4.8282
 Frc consts  --      0.3193                 0.3494                 0.6139
 IR Inten    --      0.0001                 2.6454                 1.9607

                     13                     14                     15
                      A                      A                      A
 Frequencies --    489.2539               508.6771               533.9780
 Red. masses --      2.4857                 5.8749                 3.4704
 Frc consts  --      0.3506                 0.8956                 0.5830
 IR Inten    --      9.7085                 0.0238                 1.1126

                     16                     17                     18
                      A                      A                      A
 Frequencies --    553.4446               564.7583               590.3308
 Red. masses --      6.8599                 3.1591                 3.1657
 Frc consts  --      1.2380                 0.5937                 0.6500
 IR Inten    --      0.5781                 4.4152                 1.8927

                     19                     20                     21
                      A                      A                      A
 Frequencies --    601.3334               653.9804               679.3094
 Red. masses --      6.7539                 6.6694                 6.2830
 Frc consts  --      1.4389                 1.6806                 1.7083
 IR Inten    --      4.3899                 2.3441                 3.6058

                     22                     23                     24
                      A                      A                      A
 Frequencies --    714.1841               747.1097               770.8096
 Red. masses --      3.3496                 6.1602                 1.2181
 Frc consts  --      1.0066                 2.0259                 0.4264
 IR Inten    --      4.1692                 0.2859                 1.7833

                     25                     26                     27
                      A                      A                      A
 Frequencies --    779.9781               786.0686               787.3640
 Red. masses --      1.4186                 3.0109                 5.6757
 Frc consts  --      0.5085                 1.0961                 2.0731
 IR Inten    --     69.5033                 0.8978                 1.1907

                     28                     29                     30
                      A                      A                      A
 Frequencies --    811.7976               815.7487               842.9335
 Red. masses --      2.3547                 4.8709                 1.4538
 Frc consts  --      0.9143                 1.9097                 0.6086
 IR Inten    --     11.7717                 0.5376                22.2610

                     31                     32                     33
                      A                      A                      A
 Frequencies --    881.9538               904.2238               904.6620
 Red. masses --      1.4391                 3.9687                 1.5434
 Frc consts  --      0.6595                 1.9118                 0.7442
 IR Inten    --      0.0405                 2.8875                 0.3152

                     34                     35                     36
                      A                      A                      A
 Frequencies --    917.6335               940.6462               941.6502
 Red. masses --      1.6324                 5.8540                 1.6800
 Frc consts  --      0.8099                 3.0518                 0.8777
 IR Inten    --     59.2033                 0.2615                 7.4405

                     37                     38                     39
                      A                      A                      A
 Frequencies --    976.0927               990.5770              1009.7027
 Red. masses --      1.3700                 1.3772                 1.3347
 Frc consts  --      0.7690                 0.7962                 0.8017
 IR Inten    --      4.2219                 7.4110                 0.1045

                     40                     41                     42
                      A                      A                      A
 Frequencies --   1016.6720              1022.1183              1024.6996
 Red. masses --      5.2657                 1.3498                 1.3391
 Frc consts  --      3.2068                 0.8309                 0.8284
 IR Inten    --      0.1073                 0.0000                 0.0080

                     43                     44                     45
                      A                      A                      A
 Frequencies --   1050.6322              1080.3416              1142.9105
 Red. masses --      2.3941                 2.2806                 2.4357
 Frc consts  --      1.5570                 1.5682                 1.8746
 IR Inten    --      2.1675                 3.5882                 0.4118

                     46                     47                     48
                      A                      A                      A
 Frequencies --   1179.2969              1203.3171              1216.1033
 Red. masses --      1.7664                 1.3676                 1.3104
 Frc consts  --      1.4474                 1.1667                 1.1418
 IR Inten    --      1.8128                 1.7382                 1.1212

                     49                     50                     51
                      A                      A                      A
 Frequencies --   1224.7665              1231.3319              1253.8702
 Red. masses --      1.1635                 1.3057                 1.6718
 Frc consts  --      1.0283                 1.1664                 1.5486
 IR Inten    --      0.0597                 3.4705                 0.8425

                     52                     53                     54
                      A                      A                      A
 Frequencies --   1273.1545              1292.9500              1319.7954
 Red. masses --      1.8932                 1.9042                 2.7088
 Frc consts  --      1.8080                 1.8755                 2.7800
 IR Inten    --      2.3513                 8.6443                 0.8803

                     55                     56                     57
                      A                      A                      A
 Frequencies --   1339.3802              1351.5038              1374.4946
 Red. masses --      1.5307                 2.3676                 3.4848
 Frc consts  --      1.6179                 2.5480                 3.8790
 IR Inten    --      2.2494                 1.0471                 0.6075

                     58                     59                     60
                      A                      A                      A
 Frequencies --   1397.8359              1414.6817              1446.6374
 Red. masses --      3.1557                 4.3316                 5.9884
 Frc consts  --      3.6330                 5.1076                 7.3838
 IR Inten    --      4.4756                 2.2422                 0.0094

                     61                     62                     63
                      A                      A                      A
 Frequencies --   1473.9135              1479.0763              1501.0961
 Red. masses --      1.8312                 2.6857                 2.3104
 Frc consts  --      2.3439                 3.4617                 3.0673
 IR Inten    --      1.9605                 0.3765                 0.2426

                     64                     65                     66
                      A                      A                      A
 Frequencies --   1515.6393              1540.8461              1558.6718
 Red. masses --      2.0837                 2.4605                 3.0035
 Frc consts  --      2.8202                 3.4418                 4.2992
 IR Inten    --      5.9938                 3.4687                18.7246

                     67                     68                     69
                      A                      A                      A
 Frequencies --   1607.2821              1614.9899              1650.2367
 Red. masses --      4.4904                 6.7225                 5.0723
 Frc consts  --      6.8347                10.3305                 8.1386
 IR Inten    --      2.4761                 0.0409                 0.3271

                     70                     71                     72
                      A                      A                      A
 Frequencies --   1668.4126              1682.0126              1688.6858
 Red. masses --      5.5648                 6.3803                 6.1373
 Frc consts  --      9.1265                10.6352                10.3115
 IR Inten    --      1.3058                 1.4066                 2.1983

                     73                     74                     75
                      A                      A                      A
 Frequencies --   3181.8901              3184.6239              3185.4434
 Red. masses --      1.0889                 1.0866                 1.0867
 Frc consts  --      6.4956                 6.4927                 6.4968
 IR Inten    --      4.4701                 1.0164                10.8522

                     76                     77                     78
                      A                      A                      A
 Frequencies --   3187.5267              3190.0596              3197.5211
 Red. masses --      1.0864                 1.0880                 1.0885
 Frc consts  --      6.5035                 6.5235                 6.5572
 IR Inten    --      3.3778                 1.6428                 8.6394

                     79                     80                     81
                      A                      A                      A
 Frequencies --   3205.4464              3206.6643              3207.5102
 Red. masses --      1.0936                 1.0940                 1.0950
 Frc consts  --      6.6203                 6.6277                 6.6377
 IR Inten    --     13.2744                43.6023                31.6748

                     82                     83                     84
                      A                      A                      A
 Frequencies --   3217.6327              3221.5026              3230.2827
 Red. masses --      1.0938                 1.0985                 1.0941
 Frc consts  --      6.6722                 6.7171                 6.7266
 IR Inten    --     32.8175                52.4572                29.1983

 - Thermochemistry -
 -------------------
 Temperature   298.150 Kelvin.  Pressure   1.00000 Atm.
 Atom     1 has atomic number  6 and mass  12.00000

 Molecular mass:   228.09390 amu.
 Principal axes and moments of inertia in atomic units:
                           1         2         3
     Eigenvalues --  1549.636727083.804528633.44116
           X            1.00000  -0.00045   0.00000
           Y            0.00045   1.00000   0.00000
           Z            0.00000   0.00000   1.00000
 This molecule is an asymmetric top.
 Rotational symmetry number  1.
 Warning -- assumption of classical behavior for rotation
           may cause significant error
 Rotational temperatures (Kelvin)      0.05589     0.01223     0.01003
 Rotational constants (GHZ):           1.16462     0.25477     0.20904
 Zero-point vibrational energy     640982.3 (Joules/Mol)
                                  153.19845 (Kcal/Mol)
 Warning -- explicit consideration of  19 degrees of freedom as
           vibrations may cause significant error
 Vibrational temperatures:     97.20   102.23   215.32   241.06   276.16
          (Kelvin)            399.96   427.78   449.86   526.13   585.13
                              632.47   668.37   703.93   731.87   768.28
                              796.28   812.56   849.35   865.18   940.93
                              977.37  1027.55  1074.92  1109.02  1122.21
                             1130.98  1132.84  1168.00  1173.68  1212.79
                             1268.93  1300.98  1301.61  1320.27  1353.38
                             1354.82  1404.38  1425.22  1452.74  1462.76
                             1470.60  1474.31  1511.63  1554.37  1644.39
                             1696.75  1731.30  1749.70  1762.17  1771.61
                             1804.04  1831.79  1860.27  1898.89  1927.07
                             1944.51  1977.59  2011.17  2035.41  2081.39
                             2120.63  2128.06  2159.74  2180.67  2216.93
                             2242.58  2312.52  2323.61  2374.32  2400.47
                             2420.04  2429.64  4578.03  4581.96  4583.14
                             4586.14  4589.78  4600.52  4611.92  4613.67
                             4614.89  4629.46  4635.02  4647.66

 Zero-point correction=                           0.244137 (Hartree/Particle)
 Thermal correction to Energy=                    0.256011
 Thermal correction to Enthalpy=                  0.256955
 Thermal correction to Gibbs Free Energy=         0.205939
 Sum of electronic and zero-point Energies=           -692.779988
 Sum of electronic and thermal Energies=              -692.768115
 Sum of electronic and thermal Enthalpies=            -692.767171
 Sum of electronic and thermal Free Energies=         -692.818186

                     E (Thermal)             CV                S
                      KCal/Mol        Cal/Mol-Kelvin    Cal/Mol-Kelvin
 Total                  160.649             51.145            107.371
 Electronic               0.000              0.000              0.000
 Translational            0.889              2.981             42.176
 Rotational               0.889              2.981             32.916
 Vibrational            158.872             45.183             32.279
 Vibration     1          0.598              1.970              4.223
 Vibration     2          0.598              1.968              4.124
 Vibration     3          0.618              1.903              2.677
 Vibration     4          0.624              1.882              2.463
 Vibration     5          0.634              1.851              2.209
 Vibration     6          0.679              1.714              1.546
 Vibration     7          0.691              1.679              1.432
 Vibration     8          0.701              1.650              1.348
 Vibration     9          0.739              1.543              1.098
 Vibration    10          0.771              1.456              0.938
 Vibration    11          0.800              1.384              0.828
 Vibration    12          0.822              1.329              0.753
 Vibration    13          0.845              1.274              0.686
 Vibration    14          0.864              1.231              0.637
 Vibration    15          0.889              1.175              0.578
 Vibration    16          0.909              1.132              0.537
 Vibration    17          0.921              1.108              0.514
 Vibration    18          0.948              1.052              0.467
 Vibration    19          0.960              1.029              0.447

 Optimization completed.
    -- Stationary point found.
 Normal termination of Gaussian 16 at Sun Jun 21 18:21:43 2020.
