 Gaussian 16, Revision A.03,
 Gaussian 16:  ES64L-G16RevA.03 25-Dec-2016

 ------------------------
 # opt freq b3lyp/cc-pVDZ
 ------------------------

 -------------------
 Title Card Required
 -------------------
 Symbolic Z-matrix:
 Charge =  0 Multiplicity = 1

 SCF Done:  E(RB3LYP) =  -117.896972692     A.U. after    9 cycles
 SCF Done:  E(RB3LYP) =  -117.897752110     A.U. after    8 cycles
 SCF Done:  E(RB3LYP) =  -117.897870854     A.U. after    6 cycles
 SCF Done:  E(RB3LYP) =  -117.897879245     A.U. after    6 cycles
 Optimization completed.
    -- Stationary point found.
 Normal termination of Gaussian 16 at Thu Jun 18 09:19:51 2020.

 -------------------------------------------------------------------
 #N Geom=AllCheck Guess=TCheck SCRF=Check GenChk RB3LYP/CC-pVDZ Freq
 -------------------------------------------------------------------

 Structure from the checkpoint file:  "C3H6_opt.chk"
 -------------------
 Title Card Required
 -------------------
 Charge =  0 Multiplicity = 1

                         Standard orientation:
 ---------------------------------------------------------------------
 Center     Atomic      Atomic             Coordinates (Angstroms)
 Number     Number       Type             X           Y           Z
 ---------------------------------------------------------------------
      1          6           0        0.755419    0.436140    0.000000
      2          6           0        0.000000   -0.872265    0.000000
      3          6           0       -0.755410    0.436136    0.000000
      4          1           0        1.269346    0.732841    0.917551
      5          1           0        1.269346    0.732841   -0.917551
      6          1           0       -0.000022   -1.465690    0.917548
      7          1           0       -0.000022   -1.465690   -0.917548
      8          1           0       -1.269353    0.732816   -0.917547
      9          1           0       -1.269353    0.732816    0.917547
 ---------------------------------------------------------------------

 SCF Done:  E(RB3LYP) =  -117.897879245     A.U. after    1 cycles

 The electronic state is 1-A'.
 Alpha  occ. eigenvalues --  -10.18753 -10.18724 -10.18723  -0.84674  -0.59342
 Alpha  occ. eigenvalues --   -0.59341  -0.48870  -0.46205  -0.36003  -0.36002
 Alpha  occ. eigenvalues --   -0.29344  -0.29344
 Alpha virt. eigenvalues --    0.06750   0.07768   0.11087   0.11088   0.14326
 Alpha virt. eigenvalues --    0.18069   0.18069   0.24435   0.24435   0.38086
 Alpha virt. eigenvalues --    0.39252   0.47884   0.47885   0.52878   0.55900

 Mulliken charges:
               1
     1  C   -0.043860
     2  C   -0.043855
     3  C   -0.043859
     4  H    0.021931
     5  H    0.021931
     6  H    0.021928
     7  H    0.021928
     8  H    0.021929
     9  H    0.021929
 Sum of Mulliken charges =   0.00000

 Dipole moment (field-independent basis, Debye):
    X=              0.0000    Y=              0.0000    Z=              0.0000  Tot=              0.0001
 Quadrupole moment (field-independent basis, Debye-Ang):
   XX=            -20.6504   YY=            -20.6508   ZZ=            -18.4709
   XY=              0.0001   XZ=              0.0000   YZ=              0.0000

  Exact polarizability:  32.062   0.000  32.062   0.000   0.000  30.671
 Approx polarizability:  42.686   0.000  42.685   0.000   0.000  41.261

                      1                      2                      3
                     A"                     A"                     A"
 Frequencies --    728.5609               728.6633               852.1620
 Red. masses --      1.0229                 1.0229                 1.0444
 Frc consts  --      0.3199                 0.3200                 0.4469
 IR Inten    --      0.0000                 0.0000                 0.7112

                      4                      5                      6
                     A'                     A'                     A'
 Frequencies --    887.7631               887.7864              1043.6003
 Red. masses --      3.3466                 3.3461                 1.3160
 Frc consts  --      1.5540                 1.5538                 0.8445
 IR Inten    --     17.1902                17.1881                 6.0627

                      7                      8                      9
                     A'                     A'                     A"
 Frequencies --   1043.7496              1069.9902              1136.8640
 Red. masses --      1.3161                 1.4289                 1.0078
 Frc consts  --      0.8448                 0.9638                 0.7675
 IR Inten    --      6.0573                 0.0002                 0.0000

                     10                     11                     12
                     A"                     A"                     A'
 Frequencies --   1195.5773              1195.6003              1218.0626
 Red. masses --      1.4505                 1.4506                 2.4071
 Frc consts  --      1.2216                 1.2217                 2.1042
 IR Inten    --      0.0000                 0.0000                 0.0000

                     13                     14                     15
                     A'                     A'                     A'
 Frequencies --   1440.2507              1440.3755              1498.0402
 Red. masses --      1.0885                 1.0885                 1.4030
 Frc consts  --      1.3303                 1.3305                 1.8550
 IR Inten    --      0.6414                 0.6410                 0.0000

                     16                     17                     18
                     A'                     A'                     A'
 Frequencies --   3121.3450              3121.4860              3130.4424
 Red. masses --      1.0505                 1.0505                 1.0643
 Frc consts  --      6.0302                 6.0307                 6.1450
 IR Inten    --     24.2025                24.2039                 0.0029

                     19                     20                     21
                     A"                     A"                     A"
 Frequencies --   3204.2144              3204.3576              3224.9337
 Red. masses --      1.1196                 1.1196                 1.1157
 Frc consts  --      6.7724                 6.7730                 6.8367
 IR Inten    --      0.0000                 0.0007                31.8535

 - Thermochemistry -
 -------------------
 Temperature   298.150 Kelvin.  Pressure   1.00000 Atm.
 Atom     1 has atomic number  6 and mass  12.00000

 Molecular mass:    42.04695 amu.
 Principal axes and moments of inertia in atomic units:
                           1         2         3
     Eigenvalues --    90.28102  90.28370 144.20488
           X            0.95815  -0.28626   0.00000
           Y            0.28626   0.95815   0.00000
           Z            0.00000   0.00000   1.00000
 This molecule is an asymmetric top.
 Rotational symmetry number  1.
 Rotational temperatures (Kelvin)      0.95938     0.95935     0.60063
 Rotational constants (GHZ):          19.99026    19.98967    12.51512
 Zero-point vibrational energy     211582.5 (Joules/Mol)
                                   50.56942 (Kcal/Mol)
 Vibrational temperatures:   1048.24  1048.38  1226.07  1277.29  1277.33
          (Kelvin)           1501.51  1501.72  1539.48  1635.69  1720.17
                             1720.20  1752.52  2072.20  2072.38  2155.35
                             4490.92  4491.12  4504.01  4610.15  4610.36
                             4639.96

 Zero-point correction=                           0.080588 (Hartree/Particle)
 Thermal correction to Energy=                    0.083980
 Thermal correction to Enthalpy=                  0.084924
 Thermal correction to Gibbs Free Energy=         0.056283
 Sum of electronic and zero-point Energies=           -117.817292
 Sum of electronic and thermal Energies=              -117.813899
 Sum of electronic and thermal Enthalpies=            -117.812955
 Sum of electronic and thermal Free Energies=         -117.841597

                     E (Thermal)             CV                S
                      KCal/Mol        Cal/Mol-Kelvin    Cal/Mol-Kelvin
 Total                   52.698             11.204             60.282
 Electronic               0.000              0.000              0.000
 Translational            0.889              2.981             37.135
 Rotational               0.889              2.981             21.691
 Vibrational             50.921              5.243              1.456

 Optimization completed.
    -- Stationary point found.
 Normal termination of Gaussian 16 at Thu Jun 18 09:20:06 2020.
