 Gaussian 16, Revision A.03,
 Gaussian 16:  ES64L-G16RevA.03 25-Dec-2016

 ------------------------
 # opt freq b3lyp/cc-pvdz
 ------------------------

 -----
 6-31g
 -----
 Symbolic Z-matrix:
 Charge =  0 Multiplicity = 1

 SCF Done:  E(RB3LYP) =  -551.601148581     A.U. after   11 cycles
 SCF Done:  E(RB3LYP) =  -551.603971172     A.U. after    9 cycles
 SCF Done:  E(RB3LYP) =  -551.604097145     A.U. after    7 cycles
 SCF Done:  E(RB3LYP) =  -551.604107066     A.U. after    6 cycles
 Optimization completed.
    -- Stationary point found.
 Normal termination of Gaussian 16 at Sat Feb 15 18:27:16 2020.

 -------------------------------------------------------------------
 #N Geom=AllCheck Guess=TCheck SCRF=Check GenChk RB3LYP/CC-pVDZ Freq
 -------------------------------------------------------------------

 Structure from the checkpoint file:  "C14H30_opt.chk"
 -----
 6-31g
 -----
 Charge =  0 Multiplicity = 1

                         Standard orientation:
 ---------------------------------------------------------------------
 Center     Atomic      Atomic             Coordinates (Angstroms)
 Number     Number       Type             X           Y           Z
 ---------------------------------------------------------------------
      1          6           0       -8.339417    0.321602    0.000001
      2          1           0       -8.395911    0.973067   -0.888942
      3          1           0       -8.395909    0.973066    0.888945
      4          1           0       -9.235311   -0.320192    0.000001
      5          6           0       -7.052809   -0.507161    0.000000
      6          1           0       -7.043152   -1.174006    0.882123
      7          1           0       -7.043153   -1.174005   -0.882124
      8          6           0       -5.779984    0.346203    0.000000
      9          1           0       -5.789432    1.014051    0.882520
     10          1           0       -5.789432    1.014051   -0.882520
     11          6           0       -4.486168   -0.474356    0.000000
     12          1           0       -4.477613   -1.142068   -0.882377
     13          1           0       -4.477613   -1.142069    0.882376
     14          6           0       -3.213450    0.378976    0.000000
     15          1           0       -3.221720    1.046653    0.882357
     16          1           0       -3.221720    1.046653   -0.882357
     17          6           0       -1.919785   -0.442273    0.000000
     18          1           0       -1.911448   -1.109971   -0.882339
     19          1           0       -1.911448   -1.109970    0.882339
     20          6           0       -0.646963    0.410951    0.000000
     21          1           0       -0.655269    1.078647    0.882335
     22          1           0       -0.655269    1.078647   -0.882336
     23          6           0        0.646725   -0.410316    0.000000
     24          1           0        0.655019   -1.078015   -0.882332
     25          1           0        0.655019   -1.078015    0.882332
     26          6           0        1.919605    0.442870    0.000000
     27          1           0        1.911278    1.110571    0.882326
     28          1           0        1.911278    1.110570   -0.882327
     29          6           0        3.213363   -0.378330    0.000000
     30          1           0        3.221587   -1.046026   -0.882331
     31          1           0        3.221587   -1.046026    0.882332
     32          6           0        4.486234    0.474829    0.000000
     33          1           0        4.477733    1.142569    0.882347
     34          1           0        4.477733    1.142569   -0.882348
     35          6           0        5.779999   -0.346103    0.000000
     36          1           0        5.789145   -1.014040   -0.882475
     37          1           0        5.789145   -1.014039    0.882476
     38          6           0        7.053229    0.506383    0.000000
     39          1           0        7.043936    1.173255    0.882107
     40          1           0        7.043936    1.173254   -0.882107
     41          6           0        8.339391   -0.322963    0.000000
     42          1           0        8.395639   -0.974684   -0.889042
     43          1           0        9.235905    0.318315    0.000000
     44          1           0        8.395639   -0.974683    0.889043
 ---------------------------------------------------------------------

 SCF Done:  E(RB3LYP) =  -551.604107066     A.U. after    1 cycles

 The electronic state is 1-A.
 Alpha  occ. eigenvalues --  -10.18002 -10.18002 -10.17765 -10.17764 -10.17759
 Alpha  occ. eigenvalues --  -10.17756 -10.17752 -10.17746 -10.17741 -10.17738
 Alpha  occ. eigenvalues --  -10.17735 -10.17730 -10.17574 -10.17567  -0.81270
 Alpha  occ. eigenvalues --   -0.80419  -0.79000  -0.77039  -0.74570  -0.71647
 Alpha  occ. eigenvalues --   -0.68358  -0.64845  -0.61373  -0.58488  -0.57437
 Alpha  occ. eigenvalues --   -0.57136  -0.56731  -0.56590  -0.48313  -0.47521
 Alpha  occ. eigenvalues --   -0.46231  -0.44509  -0.43324  -0.42686  -0.42444
 Alpha  occ. eigenvalues --   -0.42144  -0.41013  -0.40170  -0.39166  -0.38899
 Alpha  occ. eigenvalues --   -0.37857  -0.36742  -0.35707  -0.35511  -0.34730
 Alpha  occ. eigenvalues --   -0.33918  -0.33553  -0.32638  -0.32617  -0.32182
 Alpha  occ. eigenvalues --   -0.31942  -0.31908  -0.31714  -0.31622  -0.31596
 Alpha  occ. eigenvalues --   -0.31593  -0.29092
 Alpha virt. eigenvalues --    0.05896   0.06117   0.06533   0.07247   0.07338
 Alpha virt. eigenvalues --    0.07823   0.08329   0.08410   0.08831   0.09980
 Alpha virt. eigenvalues --    0.10066   0.10692   0.12237   0.12300   0.13002

 Mulliken charges:
               1
     1  C   -0.002940
     2  H    0.015850
     3  H    0.015850
     4  H    0.011358
     5  C   -0.035491
     6  H    0.003853
     7  H    0.003853
     8  C   -0.007277
     9  H    0.000100
    10  H    0.000100
    11  C   -0.002717
    12  H    0.000065
    13  H    0.000065
    14  C   -0.001907
    15  H    0.000278
    16  H    0.000278
    17  C   -0.001412
    18  H    0.000168
    19  H    0.000168
    20  C   -0.000586
    21  H    0.000177
    22  H    0.000177
    23  C   -0.000603
    24  H    0.000178
    25  H    0.000178
    26  C   -0.001393
    27  H    0.000167
    28  H    0.000167
    29  C   -0.001954
    30  H    0.000280
    31  H    0.000280
    32  C   -0.002684
    33  H    0.000073
    34  H    0.000073
    35  C   -0.007344
    36  H    0.000099
    37  H    0.000099
    38  C   -0.035313
    39  H    0.003855
    40  H    0.003855
    41  C   -0.003204
    42  H    0.015885
    43  H    0.011412
    44  H    0.015885
 Sum of Mulliken charges =   0.00000

 Dipole moment (field-independent basis, Debye):
    X=             -0.0004    Y=              0.0001    Z=              0.0000  Tot=              0.0004
 Quadrupole moment (field-independent basis, Debye-Ang):
   XX=            -97.9730   YY=            -96.7713   ZZ=            -94.0582
   XY=              0.7488   XZ=              0.0000   YZ=              0.0000

  Exact polarizability: 217.799  -0.866 142.775   0.000   0.000 136.023
 Approx polarizability: 215.785   0.081 213.947   0.000   0.000 214.028

                      1                      2                      3
                      A                      A                      A
 Frequencies --     17.2092                26.6795                39.0397
 Red. masses --      3.7629                 3.7929                 1.4856
 Frc consts  --      0.0007                 0.0016                 0.0013
 IR Inten    --      0.0006                 0.0006                 0.0035

                      4                      5                      6
                      A                      A                      A
 Frequencies --     45.1527                71.4192                76.1911
 Red. masses --      3.4015                 3.5718                 1.5166
 Frc consts  --      0.0041                 0.0107                 0.0052
 IR Inten    --      0.0000                 0.0000                 0.0000

                      7                      8                      9
                      A                      A                      A
 Frequencies --     82.3531               112.7046               121.7093
 Red. masses --      2.9977                 1.5731                 2.6054
 Frc consts  --      0.0120                 0.0118                 0.0227
 IR Inten    --      0.0009                 0.0014                 0.0000

                     10                     11                     12
                      A                      A                      A
 Frequencies --    134.3907               145.8478               154.7039
 Red. masses --      3.3596                 1.6826                 2.2594
 Frc consts  --      0.0358                 0.0211                 0.0319
 IR Inten    --      0.0055                 0.0000                 0.0003

                     13                     14                     15
                      A                      A                      A
 Frequencies --    161.6999               171.3162               175.0576
 Red. masses --      4.2105                 1.8722                 2.0592
 Frc consts  --      0.0649                 0.0324                 0.0372
 IR Inten    --      0.0000                 0.0001                 0.0000

                     16                     17                     18
                      A                      A                      A
 Frequencies --    211.5143               253.0745               255.5137
 Red. masses --      3.1822                 1.1217                 1.1166
 Frc consts  --      0.0839                 0.0423                 0.0430
 IR Inten    --      0.0000                 0.0000                 0.0000

                     19                     20                     21
                      A                      A                      A
 Frequencies --    288.5523               316.4269               375.4372
 Red. masses --      3.1001                 3.7498                 2.8493
 Frc consts  --      0.1521                 0.2212                 0.2366
 IR Inten    --      0.0345                 0.0586                 0.0000

                     22                     23                     24
                      A                      A                      A
 Frequencies --    433.4662               453.2958               510.1284
 Red. masses --      3.4557                 2.7710                 3.0433
 Frc consts  --      0.3826                 0.3355                 0.4666
 IR Inten    --      0.0000                 0.0313                 0.0376

                     25                     26                     27
                      A                      A                      A
 Frequencies --    512.5532               737.9695               738.2088
 Red. masses --      2.8155                 1.0691                 1.0619
 Frc consts  --      0.4358                 0.3430                 0.3410
 IR Inten    --      0.0000                 0.1270                 0.0078

                     28                     29                     30
                      A                      A                      A
 Frequencies --    739.5293               741.2892               751.0531
 Red. masses --      1.0561                 1.0836                 1.1103
 Frc consts  --      0.3403                 0.3508                 0.3690
 IR Inten    --      9.5283                 0.0007                 0.9230

                     31                     32                     33
                      A                      A                      A
 Frequencies --    770.8648               801.6447               841.2788
 Red. masses --      1.1445                 1.1808                 1.2094
 Frc consts  --      0.4007                 0.4471                 0.5043
 IR Inten    --      0.0000                 0.5886                 0.0000

                     34                     35                     36
                      A                      A                      A
 Frequencies --    886.2896               899.6558               901.1953
 Red. masses --      1.2232                 1.8830                 1.8575
 Frc consts  --      0.5661                 0.8979                 0.8888
 IR Inten    --      0.4783                 2.7541                 0.0516

                     37                     38                     39
                      A                      A                      A
 Frequencies --    933.2307               979.0017               990.4534
 Red. masses --      1.2169                 1.1864                 4.5602
 Frc consts  --      0.6244                 0.6699                 2.6357
 IR Inten    --      0.0000                 0.2833                 0.0000

                     40                     41                     42
                      A                      A                      A
 Frequencies --    995.7916              1020.2457              1024.9380
 Red. masses --      4.8206                 1.1290                 3.7136
 Frc consts  --      2.8164                 0.6924                 2.2985
 IR Inten    --      0.1635                 0.0000                 0.0002

                     43                     44                     45
                      A                      A                      A
 Frequencies --   1025.4494              1050.1067              1051.7642
 Red. masses --      3.0896                 3.0081                 1.0524
 Frc consts  --      1.9142                 1.9544                 0.6859
 IR Inten    --      0.2759                 0.3413                 0.0552

                     46                     47                     48
                      A                      A                      A
 Frequencies --   1064.8411              1073.2251              1076.0077
 Red. masses --      2.6154                 2.2431                 2.0209
 Frc consts  --      1.7473                 1.5222                 1.3786
 IR Inten    --      0.0000                 0.0001                 0.0085

                     49                     50                     51
                      A                      A                      A
 Frequencies --   1076.1319              1077.7619              1082.9821
 Red. masses --      2.3029                 2.0121                 2.1838
 Frc consts  --      1.5713                 1.3771                 1.5090
 IR Inten    --      0.4042                 0.0860                 0.0000

                     52                     53                     54
                      A                      A                      A
 Frequencies --   1125.5594              1149.9154              1194.2971
 Red. masses --      2.1692                 3.4642                 1.9985
 Frc consts  --      1.6191                 2.6989                 1.6795
 IR Inten    --      1.5955                 0.0000                 0.0000

                     55                     56                     57
                      A                      A                      A
 Frequencies --   1204.7490              1211.4180              1226.6253
 Red. masses --      1.7567                 1.3132                 1.5422
 Frc consts  --      1.5023                 1.1355                 1.3671
 IR Inten    --      0.0565                 9.9060                 0.0000

                     58                     59                     60
                      A                      A                      A
 Frequencies --   1240.5388              1252.3477              1268.8697
 Red. masses --      1.3242                 1.4048                 1.3148
 Frc consts  --      1.2007                 1.2981                 1.2472
 IR Inten    --      0.0000                 0.0001                 2.7783

                     61                     62                     63
                      A                      A                      A
 Frequencies --   1277.4631              1296.8105              1299.2116
 Red. masses --      1.3135                 1.3224                 1.2439
 Frc consts  --      1.2629                 1.3103                 1.2370
 IR Inten    --      0.0000                 0.0000                 0.1042

                     64                     65                     66
                      A                      A                      A
 Frequencies --   1309.5306              1315.1077              1315.5577
 Red. masses --      1.0146                 1.0287                 1.1735
 Frc consts  --      1.0251                 1.0482                 1.1966
 IR Inten    --      0.0000                 0.2941                 0.0012

                     67                     68                     69
                      A                      A                      A
 Frequencies --   1322.4931              1324.0348              1325.4352
 Red. masses --      1.0595                 1.3517                 1.1204
 Frc consts  --      1.0918                 1.3961                 1.1597
 IR Inten    --      0.0000                 2.2373                 0.3449

                     70                     71                     72
                      A                      A                      A
 Frequencies --   1329.3607              1330.5738              1349.3084
 Red. masses --      1.0998                 1.1092                 1.3969
 Frc consts  --      1.1451                 1.1570                 1.4984
 IR Inten    --      0.0489                 0.0000                 0.0000

                     73                     74                     75
                      A                      A                      A
 Frequencies --   1370.9517              1387.4570              1397.9419
 Red. masses --      1.4467                 1.4899                 1.4063
 Frc consts  --      1.6021                 1.6898                 1.6193
 IR Inten    --      1.7595                 0.0000                 0.3339

                     76                     77                     78
                      A                      A                      A
 Frequencies --   1398.5856              1399.0237              1402.0803
 Red. masses --      1.4555                 1.4956                 1.6583
 Frc consts  --      1.6774                 1.7247                 1.9207
 IR Inten    --      0.3800                 2.0891                 0.0017

                     79                     80                     81
                      A                      A                      A
 Frequencies --   1403.2994              1403.9316              1456.5450
 Red. masses --      1.6570                 1.6643                 1.0749
 Frc consts  --      1.9225                 1.9327                 1.3435
 IR Inten    --      0.0001                 0.0569                 0.0617

                     82                     83                     84
                      A                      A                      A
 Frequencies --   1456.6225              1458.2917              1458.7188
 Red. masses --      1.0754                 1.0712                 1.0749
 Frc consts  --      1.3444                 1.3422                 1.3475
 IR Inten    --      0.0000                 0.0000                 0.0976

                     85                     86                     87
                      A                      A                      A
 Frequencies --   1460.5076              1461.6635              1462.7008
 Red. masses --      1.0664                 1.0733                 1.0681
 Frc consts  --      1.3402                 1.3510                 1.3464
 IR Inten    --      0.5863                 0.0000                 0.0000

                     88                     89                     90
                      A                      A                      A
 Frequencies --   1466.5885              1469.6566              1469.8670
 Red. masses --      1.0795                 1.0375                 1.0375
 Frc consts  --      1.3680                 1.3203                 1.3207
 IR Inten    --      0.6213                 5.6661                 5.6880

                     91                     92                     93
                      A                      A                      A
 Frequencies --   1471.3482              1476.1561              1480.5378
 Red. masses --      1.0871                 1.0924                 1.0948
 Frc consts  --      1.3866                 1.4024                 1.4139
 IR Inten    --      0.0001                 0.8517                 0.0001

                     94                     95                     96
                      A                      A                      A
 Frequencies --   1484.2867              1487.3291              1489.3809
 Red. masses --      1.0960                 1.0972                 1.0983
 Frc consts  --      1.4226                 1.4301                 1.4354
 IR Inten    --      1.5752                 0.0000                 7.8292

                     97                     98                     99
                      A                      A                      A
 Frequencies --   2992.4158              2992.5735              2993.5855
 Red. masses --      1.0585                 1.0582                 1.0590
 Frc consts  --      5.5847                 5.5838                 5.5913
 IR Inten    --      0.0011                 0.1363                 2.4372

                    100                    101                    102
                      A                      A                      A
 Frequencies --   2993.9748              2995.9523              2996.1427
 Red. masses --      1.0582                 1.0594                 1.0585
 Frc consts  --      5.5885                 5.6027                 5.5984
 IR Inten    --      0.0100                 0.0060                 0.3333

                    103                    104                    105
                      A                      A                      A
 Frequencies --   2998.4037              2999.4361              3003.3784
 Red. masses --      1.0591                 1.0598                 1.0599
 Frc consts  --      5.6102                 5.6177                 5.6331
 IR Inten    --      0.0008                 6.3225                 0.0070

                    106                    107                    108
                      A                      A                      A
 Frequencies --   3007.0513              3009.6583              3010.5068
 Red. masses --      1.0600                 1.0602                 1.0600
 Frc consts  --      5.6472                 5.6580                 5.6605
 IR Inten    --     22.2785                 0.0001               360.1589

                    109                    110                    111
                      A                      A                      A
 Frequencies --   3014.1131              3014.1521              3014.9520
 Red. masses --      1.0972                 1.0975                 1.0983
 Frc consts  --      5.8731                 5.8746                 5.8823
 IR Inten    --      0.0054                 0.0319                 0.0001

                    112                    113                    114
                      A                      A                      A
 Frequencies --   3017.1410              3018.8895              3020.6824
 Red. masses --      1.0996                 1.0368                 1.0367
 Frc consts  --      5.8978                 5.5672                 5.5734
 IR Inten    --      0.0805                40.8201                38.8881

                    115                    116                    117
                      A                      A                      A
 Frequencies --   3020.9306              3026.1689              3032.4611
 Red. masses --      1.1012                 1.1028                 1.1042
 Frc consts  --      5.9211                 5.9504                 5.9824
 IR Inten    --      0.0002                 0.0079                 0.0000

                    118                    119                    120
                      A                      A                      A
 Frequencies --   3039.1624              3045.5733              3051.4244
 Red. masses --      1.1051                 1.1055                 1.1056
 Frc consts  --      6.0138                 6.0417                 6.0655
 IR Inten    --      1.2838                 0.0020                21.0470

                    121                    122                    123
                      A                      A                      A
 Frequencies --   3056.6680              3060.7947              3087.4826
 Red. masses --      1.1055                 1.1052                 1.1023
 Frc consts  --      6.0854                 6.1001                 6.1912
 IR Inten    --      0.0058               327.5252                64.1552

                    124                    125                    126
                      A                      A                      A
 Frequencies --   3089.3587              3093.8442              3095.7441
 Red. masses --      1.1023                 1.1014                 1.1014
 Frc consts  --      6.1985                 6.2115                 6.2193
 IR Inten    --     63.4355                41.8081                41.3255

 - Thermochemistry -
 -------------------
 Temperature   298.150 Kelvin.  Pressure   1.00000 Atm.
 Atom     1 has atomic number  6 and mass  12.00000

 Molecular mass:   198.23475 amu.
 Principal axes and moments of inertia in atomic units:
                           1         2         3
     Eigenvalues --   300.67323********************
           X            1.00000  -0.00085   0.00000
           Y            0.00085   1.00000   0.00000
           Z            0.00000   0.00000   1.00000
 This molecule is an asymmetric top.
 Rotational symmetry number  1.
 Rotational temperatures (Kelvin)      0.28807     0.00445     0.00442
 Rotational constants (GHZ):           6.00233     0.09279     0.09211
 Zero-point vibrational energy    1086278.9 (Joules/Mol)
                                  259.62689 (Kcal/Mol)
 Warning -- explicit consideration of  25 degrees of freedom as
           vibrations may cause significant error
 Vibrational temperatures:     24.76    38.39    56.17    64.96   102.76
          (Kelvin)            109.62   118.49   162.16   175.11   193.36
                              209.84   222.58   232.65   246.49   251.87
                              304.32   364.12   367.63   415.16   455.27
                              540.17   623.66   652.19   733.96   737.45
                             1061.77  1062.12  1064.02  1066.55  1080.60
                             1109.10  1153.39  1210.41  1275.17  1294.40
                             1296.62  1342.71  1408.57  1425.04  1432.72
                             1467.91  1474.66  1475.39  1510.87  1513.25
                             1532.07  1544.13  1548.14  1548.31  1550.66
                             1558.17  1619.43  1654.47  1718.33  1733.37
                             1742.96  1764.84  1784.86  1801.85  1825.62
                             1837.98  1865.82  1869.28  1884.12  1892.15
                             1892.79  1902.77  1904.99  1907.01  1912.65
                             1914.40  1941.35  1972.49  1996.24  2011.33
                             2012.25  2012.88  2017.28  2019.03  2019.94
                             2095.64  2095.75  2098.16  2098.77  2101.34
                             2103.01  2104.50  2110.09  2114.51  2114.81
                             2116.94  2123.86  2130.16  2135.56  2139.93
                             2142.89  4305.42  4305.65  4307.10  4307.66
                             4310.51  4310.78  4314.03  4315.52  4321.19
                             4326.48  4330.23  4331.45  4336.64  4336.69
                             4337.84  4340.99  4343.51  4346.09  4346.45
                             4353.98  4363.04  4372.68  4381.90  4390.32
                             4397.86  4403.80  4442.20  4444.90  4451.35
                             4454.09

 Zero-point correction=                           0.413742 (Hartree/Particle)
 Thermal correction to Energy=                    0.433041
 Thermal correction to Enthalpy=                  0.433985
 Thermal correction to Gibbs Free Energy=         0.363297
 Sum of electronic and zero-point Energies=           -551.190365
 Sum of electronic and thermal Energies=              -551.171066
 Sum of electronic and thermal Enthalpies=            -551.170122
 Sum of electronic and thermal Free Energies=         -551.240810

                     E (Thermal)             CV                S
                      KCal/Mol        Cal/Mol-Kelvin    Cal/Mol-Kelvin
 Total                  271.737             68.468            148.775
 Electronic               0.000              0.000              0.000
 Translational            0.889              2.981             41.758
 Rotational               0.889              2.981             33.105
 Vibrational            269.960             62.506             73.913
 Vibration     1          0.593              1.986              6.933
 Vibration     2          0.593              1.984              6.062
 Vibration     3          0.594              1.981              5.307
 Vibration     4          0.595              1.979              5.019
 Vibration     5          0.598              1.968              4.114
 Vibration     6          0.599              1.965              3.987
 Vibration     7          0.600              1.961              3.834
 Vibration     8          0.607              1.939              3.222
 Vibration     9          0.609              1.931              3.073
 Vibration    10          0.613              1.919              2.882
 Vibration    11          0.617              1.907              2.726
 Vibration    12          0.620              1.897              2.614
 Vibration    13          0.622              1.889              2.530
 Vibration    14          0.626              1.878              2.421
 Vibration    15          0.627              1.873              2.380
 Vibration    16          0.643              1.823              2.031
 Vibration    17          0.664              1.758              1.709
 Vibration    18          0.666              1.753              1.692
 Vibration    19          0.685              1.695              1.482
 Vibration    20          0.703              1.642              1.329
 Vibration    21          0.746              1.522              1.057
 Vibration    22          0.794              1.397              0.847
 Vibration    23          0.812              1.354              0.786
 Vibration    24          0.865              1.228              0.633
 Vibration    25          0.868              1.222              0.627

                           ! Non-Optimized Parameters !
 Normal termination of Gaussian 16 at Sat Feb 15 18:47:03 2020.
