 Gaussian 16, Revision A.03,
 Gaussian 16:  ES64L-G16RevA.03 25-Dec-2016

 ------------------------
 # opt freq b3lyp/cc-pVDZ
 ------------------------

 -------------------
 Title Card Required
 -------------------
 Symbolic Z-matrix:
 Charge =  0 Multiplicity = 1

 SCF Done:  E(RB3LYP) =  -512.257488426     A.U. after   11 cycles
 SCF Done:  E(RB3LYP) =  -512.284129667     A.U. after   10 cycles
 SCF Done:  E(RB3LYP) =  -512.289384053     A.U. after    9 cycles
 SCF Done:  E(RB3LYP) =  -512.289573702     A.U. after    7 cycles
 SCF Done:  E(RB3LYP) =  -512.289577422     A.U. after    6 cycles
 Optimization completed.
    -- Stationary point found.
 Normal termination of Gaussian 16 at Thu Jan  9 22:02:54 2020.

 -------------------------------------------------------------------
 #N Geom=AllCheck Guess=TCheck SCRF=Check GenChk RB3LYP/CC-pVDZ Freq
 -------------------------------------------------------------------

 Structure from the checkpoint file:  "C13H28-opt.chk"
 -------------------
 Title Card Required
 -------------------
 Charge =  0 Multiplicity = 1

                         Standard orientation:
 ---------------------------------------------------------------------
 Center     Atomic      Atomic             Coordinates (Angstroms)
 Number     Number       Type             X           Y           Z
 ---------------------------------------------------------------------
      1          6           0       -7.692649    0.385040   -0.000016
      2          1           0       -7.740932    1.037217   -0.889018
      3          1           0       -7.740957    1.037212    0.888987
      4          1           0       -8.596664   -0.245396   -0.000033
      5          6           0       -6.416590   -0.459939    0.000004
      6          1           0       -6.415351   -1.126924    0.882165
      7          1           0       -6.415330   -1.126918   -0.882160
      8          6           0       -5.133151    0.377293    0.000015
      9          1           0       -5.134204    1.045239    0.882598
     10          1           0       -5.134204    1.045270   -0.882545
     11          6           0       -3.849713   -0.459371    0.000000
     12          1           0       -3.849494   -1.127168   -0.882441
     13          1           0       -3.849486   -1.127185    0.882427
     14          6           0       -2.566513    0.378046    0.000003
     15          1           0       -2.566464    1.045814    0.882419
     16          1           0       -2.566463    1.045819   -0.882409
     17          6           0       -1.283240   -0.459252    0.000001
     18          1           0       -1.283209   -1.127039   -0.882401
     19          1           0       -1.283208   -1.127041    0.882402
     20          6           0        0.000000    0.378103    0.000002
     21          1           0        0.000000    1.045886    0.882402
     22          1           0        0.000000    1.045888   -0.882398
     23          6           0        1.283240   -0.459252    0.000000
     24          1           0        1.283208   -1.127039   -0.882402
     25          1           0        1.283209   -1.127041    0.882401
     26          6           0        2.566513    0.378046    0.000001
     27          1           0        2.566464    1.045815    0.882416
     28          1           0        2.566463    1.045818   -0.882413
     29          6           0        3.849713   -0.459371   -0.000001
     30          1           0        3.849489   -1.127175   -0.882436
     31          1           0        3.849490   -1.127178    0.882432
     32          6           0        5.133151    0.377293   -0.000001
     33          1           0        5.134205    1.045253    0.882572
     34          1           0        5.134204    1.045256   -0.882571
     35          6           0        6.416590   -0.459939   -0.000002
     36          1           0        6.415340   -1.126920   -0.882166
     37          1           0        6.415341   -1.126922    0.882159
     38          6           0        7.692649    0.385040   -0.000002
     39          1           0        7.740945    1.037213    0.889001
     40          1           0        8.596664   -0.245396   -0.000003
     41          1           0        7.740944    1.037216   -0.889003
 ---------------------------------------------------------------------

 SCF Done:  E(RB3LYP) =  -512.289577422     A.U. after    1 cycles

 The electronic state is 1-A.
 Alpha  occ. eigenvalues --  -10.18004 -10.18004 -10.17766 -10.17766 -10.17761
 Alpha  occ. eigenvalues --  -10.17757 -10.17752 -10.17745 -10.17741 -10.17738
 Alpha  occ. eigenvalues --  -10.17733 -10.17571 -10.17571  -0.81233  -0.80254
 Alpha  occ. eigenvalues --   -0.78629  -0.76390  -0.73586  -0.70296  -0.66651
 Alpha  occ. eigenvalues --   -0.62877  -0.59456  -0.57424  -0.57312  -0.56833
 Alpha  occ. eigenvalues --   -0.56581  -0.48277  -0.47369  -0.45901  -0.43957
 Alpha  occ. eigenvalues --   -0.43268  -0.42734  -0.42029  -0.41662  -0.40216
 Alpha  occ. eigenvalues --   -0.39742  -0.39193  -0.37717  -0.36775  -0.35998
 Alpha  occ. eigenvalues --   -0.35546  -0.34657  -0.33837  -0.33057  -0.32857
 Alpha  occ. eigenvalues --   -0.32202  -0.32082  -0.32045  -0.31898  -0.31724
 Alpha  occ. eigenvalues --   -0.31623  -0.31595  -0.29200
 Alpha virt. eigenvalues --    0.05903   0.06152   0.06628   0.07381   0.07481
 Alpha virt. eigenvalues --    0.07858   0.08514   0.08949   0.08956   0.10393
 Alpha virt. eigenvalues --    0.10795   0.11235   0.12922   0.13099   0.13748

 Mulliken charges:
               1
     1  C   -0.003030
     2  H    0.015872
     3  H    0.015872
     4  H    0.011376
     5  C   -0.035490
     6  H    0.003866
     7  H    0.003866
     8  C   -0.007318
     9  H    0.000114
    10  H    0.000114
    11  C   -0.002732
    12  H    0.000076
    13  H    0.000076
    14  C   -0.001964
    15  H    0.000294
    16  H    0.000294
    17  C   -0.001546
    18  H    0.000179
    19  H    0.000179
    20  C   -0.000609
    21  H    0.000205
    22  H    0.000205
    23  C   -0.001546
    24  H    0.000179
    25  H    0.000179
    26  C   -0.001964
    27  H    0.000294
    28  H    0.000294
    29  C   -0.002732
    30  H    0.000076
    31  H    0.000076
    32  C   -0.007318
    33  H    0.000114
    34  H    0.000114
    35  C   -0.035490
    36  H    0.003866
    37  H    0.003866
    38  C   -0.003030
    39  H    0.015872
    40  H    0.011376
    41  H    0.015872
 Sum of Mulliken charges =   0.00000

 Dipole moment (field-independent basis, Debye):
    X=              0.0000    Y=             -0.0647    Z=              0.0000  Tot=              0.0647
 Quadrupole moment (field-independent basis, Debye-Ang):
   XX=            -91.0614   YY=            -89.9746   ZZ=            -87.4596
   XY=              0.0000   XZ=              0.0000   YZ=              0.0000

  Exact polarizability: 200.836   0.000 133.123   0.000   0.000 126.815
 Approx polarizability: 200.421   0.000 198.767   0.000   0.000 198.839

                      1                      2                      3
                      A                      A                      A
 Frequencies --     20.1310                30.8005                42.7848
 Red. masses --      3.6488                 3.7219                 1.6173
 Frc consts  --      0.0009                 0.0021                 0.0017
 IR Inten    --      0.0004                 0.0006                 0.0000

                      4                      5                      6
                      A                      A                      A
 Frequencies --     53.3504                80.8794                82.1332
 Red. masses --      2.7747                 1.6758                 3.4867
 Frc consts  --      0.0047                 0.0065                 0.0139
 IR Inten    --      0.0000                 0.0033                 0.0005

                      7                      8                      9
                      A                      A                      A
 Frequencies --     96.1238               118.7173               138.6149
 Red. masses --      2.4525                 1.6973                 2.2848
 Frc consts  --      0.0134                 0.0141                 0.0259
 IR Inten    --      0.0000                 0.0000                 0.0000

                     10                     11                     12
                      A                      A                      A
 Frequencies --    151.4410               152.3540               170.3213
 Red. masses --      1.7794                 3.2774                 2.0996
 Frc consts  --      0.0240                 0.0448                 0.0359
 IR Inten    --      0.0007                 0.0064                 0.0000

                     13                     14                     15
                      A                      A                      A
 Frequencies --    173.9585               175.4059               237.8249
 Red. masses --      1.9195                 4.1836                 3.0510
 Frc consts  --      0.0342                 0.0758                 0.1017
 IR Inten    --      0.0000                 0.0003                 0.0017

                     16                     17                     18
                      A                      A                      A
 Frequencies --    254.0565               254.0713               329.6878
 Red. masses --      1.1197                 1.1207                 3.8232
 Frc consts  --      0.0426                 0.0426                 0.2448
 IR Inten    --      0.0000                 0.0000                 0.0860

                     19                     20                     21
                      A                      A                      A
 Frequencies --    329.6928               420.8287               445.9070
 Red. masses --      2.8802                 2.7944                 3.2509
 Frc consts  --      0.1845                 0.2916                 0.3808
 IR Inten    --      0.0235                 0.0000                 0.0038

                     22                     23                     24
                      A                      A                      A
 Frequencies --    500.1038               513.9625               738.5743
 Red. masses --      2.8485                 2.9388                 1.0620
 Frc consts  --      0.4197                 0.4574                 0.3413
 IR Inten    --      0.0154                 0.0291                 0.0000

                     25                     26                     27
                      A                      A                      A
 Frequencies --    738.6856               739.9596               743.8445
 Red. masses --      1.0709                 1.0570                 1.0908
 Frc consts  --      0.3443                 0.3410                 0.3556
 IR Inten    --      0.0084                 9.1466                 0.0000

                     28                     29                     30
                      A                      A                      A
 Frequencies --    757.8710               784.2942               822.5790
 Red. masses --      1.1219                 1.1601                 1.1953
 Frc consts  --      0.3797                 0.4204                 0.4765
 IR Inten    --      0.8336                 0.0000                 0.6017

                     31                     32                     33
                      A                      A                      A
 Frequencies --    868.9416               899.0260               901.7367
 Red. masses --      1.2170                 1.9121                 1.8264
 Frc consts  --      0.5414                 0.9106                 0.8750
 IR Inten    --      0.0000                 1.8400                 0.9862

                     34                     35                     36
                      A                      A                      A
 Frequencies --    918.9985               968.8442               989.1438
 Red. masses --      1.2181                 1.1932                 4.9785
 Frc consts  --      0.6061                 0.6599                 2.8699
 IR Inten    --      0.4509                 0.0000                 0.0023

                     37                     38                     39
                      A                      A                      A
 Frequencies --   1006.2538              1014.4927              1017.3934
 Red. masses --      4.0148                 1.1380                 3.4002
 Frc consts  --      2.3951                 0.6900                 2.0737
 IR Inten    --      0.2670                 0.1977                 0.0377

                     40                     41                     42
                      A                      A                      A
 Frequencies --   1039.2156              1050.0420              1061.5549
 Red. masses --      3.2904                 1.0578                 2.7281
 Frc consts  --      2.0937                 0.6872                 1.8113
 IR Inten    --      0.1446                 0.0000                 0.1161

                     43                     44                     45
                      A                      A                      A
 Frequencies --   1063.9562              1075.4751              1076.3772
 Red. masses --      2.5025                 1.9323                 2.2667
 Frc consts  --      1.6691                 1.3168                 1.5473
 IR Inten    --      0.0250                 0.0030                 0.1688

                     46                     47                     48
                      A                      A                      A
 Frequencies --   1078.5721              1080.2205              1122.7249
 Red. masses --      2.1716                 2.0805                 2.1154
 Frc consts  --      1.4884                 1.4304                 1.5710
 IR Inten    --      0.0196                 0.7188                 0.9742

                     49                     50                     51
                      A                      A                      A
 Frequencies --   1150.2792              1194.4906              1206.4191
 Red. masses --      3.3990                 1.9910                 1.7284
 Frc consts  --      2.6498                 1.6737                 1.4821
 IR Inten    --      0.4569                 0.0460                 0.0000

                     52                     53                     54
                      A                      A                      A
 Frequencies --   1214.1300              1230.8708              1245.6120
 Red. masses --      1.3165                 1.5107                 1.3215
 Frc consts  --      1.1434                 1.3485                 1.2081
 IR Inten    --      9.4918                 0.0116                 0.0196

                     55                     56                     57
                      A                      A                      A
 Frequencies --   1258.7620              1276.1955              1285.0805
 Red. masses --      1.3766                 1.3148                 1.2874
 Frc consts  --      1.2851                 1.2617                 1.2526
 IR Inten    --      0.0000                 2.8339                 0.0441

                     58                     59                     60
                      A                      A                      A
 Frequencies --   1306.2913              1306.4436              1310.3153
 Red. masses --      1.3305                 1.2025                 1.0247
 Frc consts  --      1.3376                 1.2093                 1.0365
 IR Inten    --      0.0090                 0.0000                 0.0000

                     61                     62                     63
                      A                      A                      A
 Frequencies --   1315.8506              1322.0198              1323.4964
 Red. masses --      1.0370                 1.1518                 1.0594
 Frc consts  --      1.0579                 1.1861                 1.0933
 IR Inten    --      0.4460                 0.1238                 0.0000

                     64                     65                     66
                      A                      A                      A
 Frequencies --   1329.8097              1329.9491              1335.0874
 Red. masses --      1.0920                 1.1203                 1.3694
 Frc consts  --      1.1378                 1.1674                 1.4382
 IR Inten    --      0.1812                 0.0000                 2.3338

                     67                     68                     69
                      A                      A                      A
 Frequencies --   1360.7486              1381.1956              1395.0842
 Red. masses --      1.4209                 1.4698                 1.4875
 Frc consts  --      1.5501                 1.6520                 1.7057
 IR Inten    --      0.0242                 1.5299                 0.0187

                     70                     71                     72
                      A                      A                      A
 Frequencies --   1398.5625              1398.8468              1402.1276
 Red. masses --      1.4013                 1.4136                 1.5883
 Frc consts  --      1.6149                 1.6297                 1.8397
 IR Inten    --      0.8458                 1.2957                 0.0782

                     73                     74                     75
                      A                      A                      A
 Frequencies --   1402.9198              1404.2103              1456.7030
 Red. masses --      1.7263                 1.6568                 1.0742
 Frc consts  --      2.0019                 1.9248                 1.3430
 IR Inten    --      0.2770                 0.0387                 0.0940

                     76                     77                     78
                      A                      A                      A
 Frequencies --   1456.8624              1458.5922              1459.2790
 Red. masses --      1.0760                 1.0693                 1.0754
 Frc consts  --      1.3455                 1.3403                 1.3492
 IR Inten    --      0.0036                 0.0434                 0.0160

                     79                     80                     81
                      A                      A                      A
 Frequencies --   1461.1944              1461.8970              1464.7261
 Red. masses --      1.0655                 1.0696                 1.0739
 Frc consts  --      1.3404                 1.3469                 1.3575
 IR Inten    --      0.6841                 0.0026                 0.2005

                     82                     83                     84
                      A                      A                      A
 Frequencies --   1469.5515              1469.7494              1469.7505
 Red. masses --      1.0833                 1.0375                 1.0375
 Frc consts  --      1.3783                 1.3205                 1.3205
 IR Inten    --      0.3945                 0.0000                11.3571

                     85                     86                     87
                      A                      A                      A
 Frequencies --   1474.7145              1479.5321              1483.6697
 Red. masses --      1.0903                 1.0940                 1.0955
 Frc consts  --      1.3971                 1.4109                 1.4209
 IR Inten    --      0.4581                 0.3777                 1.2689

                     88                     89                     90
                      A                      A                      A
 Frequencies --   1487.0407              1489.3655              2991.7876
 Red. masses --      1.0969                 1.0982                 1.0583
 Frc consts  --      1.4291                 1.4353                 5.5812
 IR Inten    --      0.1660                 7.3586                 0.0003

                     91                     92                     93
                      A                      A                      A
 Frequencies --   2992.0496              2993.0509              2993.9668
 Red. masses --      1.0587                 1.0582                 1.0591
 Frc consts  --      5.5840                 5.5854                 5.5934
 IR Inten    --      0.7626                 1.2671                 0.0578

                     94                     95                     96
                      A                      A                      A
 Frequencies --   2995.3046              2997.1219              2997.9994
 Red. masses --      1.0586                 1.0593                 1.0594
 Frc consts  --      5.5957                 5.6064                 5.6104
 IR Inten    --      0.0012                 1.6048                 4.3395

                     97                     98                     99
                      A                      A                      A
 Frequencies --   3001.8146              3005.9432              3008.9137
 Red. masses --      1.0599                 1.0600                 1.0602
 Frc consts  --      5.6270                 5.6430                 5.6553
 IR Inten    --      0.1612                22.2223                 0.1183

                    100                    101                    102
                      A                      A                      A
 Frequencies --   3009.8801              3013.4248              3013.5430
 Red. masses --      1.0601                 1.0972                 1.0976
 Frc consts  --      5.6582                 5.8702                 5.8731
 IR Inten    --    329.5579                 0.0121                 0.0000

                    103                    104                    105
                      A                      A                      A
 Frequencies --   3014.7354              3017.6685              3020.0027
 Red. masses --      1.0986                 1.1001                 1.0367
 Frc consts  --      5.8831                 5.9026                 5.5708
 IR Inten    --      0.0707                 0.0000                50.9595

                    106                    107                    108
                      A                      A                      A
 Frequencies --   3020.0552              3022.4652              3028.7562
 Red. masses --      1.0367                 1.1019                 1.1035
 Frc consts  --      5.5712                 5.9308                 5.9642
 IR Inten    --     27.7924                 0.0357                 0.0000

                    109                    110                    111
                      A                      A                      A
 Frequencies --   3035.9140              3043.0026              3049.4729
 Red. masses --      1.1047                 1.1054                 1.1056
 Frc consts  --      5.9989                 6.0306                 6.0575
 IR Inten    --      0.6318                 0.0000                17.1346

                    112                    113                    114
                      A                      A                      A
 Frequencies --   3055.2493              3059.8730              3088.6387
 Red. masses --      1.1055                 1.1052                 1.1023
 Frc consts  --      6.0798                 6.0966                 6.1956
 IR Inten    --      0.0000               300.8288                 0.0000

                    115                    116                    117
                      A                      A                      A
 Frequencies --   3088.6659              3095.0409              3095.0648
 Red. masses --      1.1023                 1.1014                 1.1014
 Frc consts  --      6.1958                 6.2164                 6.2165
 IR Inten    --    125.5612                35.3001                47.6177

 - Thermochemistry -
 -------------------
 Temperature   298.150 Kelvin.  Pressure   1.00000 Atm.
 Atom     1 has atomic number  6 and mass  12.00000

 Molecular mass:   184.21910 amu.
 Principal axes and moments of inertia in atomic units:
                           1         2         3
     Eigenvalues --   280.72283********************
           X            1.00000   0.00000   0.00000
           Y            0.00000   1.00000   0.00000
           Z            0.00000   0.00000   1.00000
 This molecule is an asymmetric top.
 Rotational symmetry number  1.
 Rotational temperatures (Kelvin)      0.30854     0.00555     0.00550
 Rotational constants (GHZ):           6.42891     0.11564     0.11465
 Zero-point vibrational energy    1012093.1 (Joules/Mol)
                                  241.89607 (Kcal/Mol)
 Warning -- explicit consideration of  23 degrees of freedom as
           vibrations may cause significant error
 Vibrational temperatures:     28.96    44.32    61.56    76.76   116.37
          (Kelvin)            118.17   138.30   170.81   199.44   217.89
                              219.20   245.05   250.29   252.37   342.18
                              365.53   365.55   474.35   474.35   605.48
                              641.56   719.54   739.48  1062.64  1062.80
                             1064.64  1070.23  1090.41  1128.42  1183.51
                             1250.21  1293.50  1297.40  1322.23  1393.95
                             1423.16  1447.77  1459.63  1463.80  1495.20
                             1510.78  1527.34  1530.80  1547.37  1548.67
                             1551.82  1554.20  1615.35  1655.00  1718.61
                             1735.77  1746.86  1770.95  1792.16  1811.08
                             1836.16  1848.94  1879.46  1879.68  1885.25
                             1893.22  1902.09  1904.22  1913.30  1913.50
                             1920.89  1957.81  1987.23  2007.21  2012.22
                             2012.63  2017.35  2018.49  2020.35  2095.87
                             2096.10  2098.59  2099.58  2102.33  2103.34
                             2107.41  2114.36  2114.64  2114.64  2121.79
                             2128.72  2134.67  2139.52  2142.86  4304.52
                             4304.89  4306.33  4307.65  4309.58  4312.19
                             4313.45  4318.94  4324.88  4329.16  4330.55
                             4335.65  4335.82  4337.53  4341.75  4345.11
                             4345.19  4348.65  4357.70  4368.00  4378.20
                             4387.51  4395.82  4402.47  4443.86  4443.90
                             4453.07  4453.11

 Zero-point correction=                           0.385486 (Hartree/Particle)
 Thermal correction to Energy=                    0.403404
 Thermal correction to Enthalpy=                  0.404348
 Thermal correction to Gibbs Free Energy=         0.337335
 Sum of electronic and zero-point Energies=           -511.904092
 Sum of electronic and thermal Energies=              -511.886173
 Sum of electronic and thermal Enthalpies=            -511.885229
 Sum of electronic and thermal Free Energies=         -511.952242

                     E (Thermal)             CV                S
                      KCal/Mol        Cal/Mol-Kelvin    Cal/Mol-Kelvin
 Total                  253.140             63.582            141.041
 Electronic               0.000              0.000              0.000
 Translational            0.889              2.981             41.539
 Rotational               0.889              2.981             32.600
 Vibrational            251.363             57.620             66.902
 Vibration     1          0.593              1.986              6.621
 Vibration     2          0.594              1.984              5.777
 Vibration     3          0.595              1.980              5.126
 Vibration     4          0.596              1.976              4.689
 Vibration     5          0.600              1.962              3.869
 Vibration     6          0.600              1.961              3.839
 Vibration     7          0.603              1.952              3.531
 Vibration     8          0.609              1.934              3.121
 Vibration     9          0.614              1.915              2.823
 Vibration    10          0.619              1.901              2.654
 Vibration    11          0.619              1.900              2.643
 Vibration    12          0.625              1.879              2.432
 Vibration    13          0.627              1.875              2.392
 Vibration    14          0.627              1.873              2.377
 Vibration    15          0.656              1.783              1.819
 Vibration    16          0.665              1.756              1.702
 Vibration    17          0.665              1.756              1.702
 Vibration    18          0.712              1.616              1.262
 Vibration    19          0.712              1.616              1.262
 Vibration    20          0.783              1.425              0.889
 Vibration    21          0.805              1.370              0.808
 Vibration    22          0.856              1.250              0.658
 Vibration    23          0.869              1.219              0.624

 Optimization completed.
    -- Stationary point found.
 Normal termination of Gaussian 16 at Thu Jan  9 22:20:23 2020.
