 Gaussian 16, Revision A.03,
 Gaussian 16:  ES64L-G16RevA.03 25-Dec-2016

 ------------------------
 # opt freq b3lyp/cc-pVDZ
 ------------------------

 -------
 cc-pVDZ
 -------
 Symbolic Z-matrix:
 Charge =  0 Multiplicity = 1

 SCF Done:  E(RB3LYP) =  -233.397600022     A.U. after   12 cycles
 SCF Done:  E(RB3LYP) =  -233.411237289     A.U. after   11 cycles
 SCF Done:  E(RB3LYP) =  -233.412038885     A.U. after   10 cycles
 SCF Done:  E(RB3LYP) =  -233.412055092     A.U. after    8 cycles
 SCF Done:  E(RB3LYP) =  -233.412055863     A.U. after    7 cycles
 Optimization completed.
    -- Stationary point found.
 Normal termination of Gaussian 16 at Sat Jun 20 08:44:08 2020.

 -------------------------------------------------------------------
 #N Geom=AllCheck Guess=TCheck SCRF=Check GenChk RB3LYP/CC-pVDZ Freq
 -------------------------------------------------------------------

 Structure from the checkpoint file:  "C6H8_opt.chk"
 -------
 cc-pVDZ
 -------
 Charge =  0 Multiplicity = 1

                         Standard orientation:
 ---------------------------------------------------------------------
 Center     Atomic      Atomic             Coordinates (Angstroms)
 Number     Number       Type             X           Y           Z
 ---------------------------------------------------------------------
      1          6           0       -1.203276    2.840719    0.000000
      2          1           0       -0.270289    3.412370    0.000000
      3          1           0       -2.135861    3.408354    0.000000
      4          6           0       -1.198691    1.495198    0.000000
      5          1           0       -2.154587    0.957463    0.000000
      6          6           0        0.000000    0.677282    0.000000
      7          1           0        0.960561    1.207622    0.000000
      8          6           0       -0.000059   -0.677311    0.000000
      9          1           0       -0.960608   -1.207670    0.000000
     10          6           0        1.198666   -1.495187    0.000000
     11          1           0        2.154531   -0.957396    0.000000
     12          6           0        1.203339   -2.840707    0.000000
     13          1           0        0.270403   -3.412438    0.000000
     14          1           0        2.135972   -3.408267    0.000000
 ---------------------------------------------------------------------

 SCF Done:  E(RB3LYP) =  -233.412055863     A.U. after    1 cycles

 The electronic state is 1-A'.
 Alpha  occ. eigenvalues --  -10.19781 -10.19780 -10.19702 -10.19636 -10.18942
 Alpha  occ. eigenvalues --  -10.18942  -0.82216  -0.78111  -0.72224  -0.62259
 Alpha  occ. eigenvalues --   -0.55799  -0.55451  -0.48538  -0.46047  -0.43080
 Alpha  occ. eigenvalues --   -0.40563  -0.38280  -0.36245  -0.34688  -0.34413
 Alpha  occ. eigenvalues --   -0.29269  -0.21632
 Alpha virt. eigenvalues --   -0.05314   0.03659   0.06449   0.08311   0.08524
 Alpha virt. eigenvalues --    0.08804   0.10417   0.12038   0.14563   0.15525
 Alpha virt. eigenvalues --    0.17050   0.27842   0.27887   0.29732   0.34357

 Mulliken charges:
               1
     1  C    0.025959
     2  H    0.008666
     3  H    0.017463
     4  C   -0.026160
     5  H   -0.026133
     6  C    0.031152
     7  H   -0.030942
     8  C    0.031148
     9  H   -0.030942
    10  C   -0.026162
    11  H   -0.026133
    12  C    0.025957
    13  H    0.008665
    14  H    0.017463
 Sum of Mulliken charges =   0.00000

 Dipole moment (field-independent basis, Debye):
    X=              0.0000    Y=              0.0001    Z=              0.0000  Tot=              0.0001
 Quadrupole moment (field-independent basis, Debye-Ang):
   XX=            -33.9245   YY=            -34.3680   ZZ=            -41.2756
   XY=              0.1961   XZ=              0.0000   YZ=              0.0000

  Exact polarizability:  70.827 -32.001 151.602   0.000   0.000  26.911
 Approx polarizability:  97.074 -47.028 259.726   0.000   0.000  40.511

                      1                      2                      3
                     A"                     A'                     A"
 Frequencies --    102.4036               148.4123               231.5135
 Red. masses --      3.3509                 2.9570                 2.8162
 Frc consts  --      0.0207                 0.0384                 0.0889
 IR Inten    --      0.2645                 2.0831                 0.0000

                      4                      5                      6
                     A"                     A'                     A'
 Frequencies --    258.0196               350.7302               445.2964
 Red. masses --      1.6212                 2.4852                 4.2609
 Frc consts  --      0.0636                 0.1801                 0.4978
 IR Inten    --      1.1266                 0.0000                 0.0000

                      7                      8                      9
                     A'                     A"                     A"
 Frequencies --    541.7316               619.2328               709.9906
 Red. masses --      2.4802                 1.1682                 1.6044
 Frc consts  --      0.4288                 0.2639                 0.4765
 IR Inten    --      5.9692                 0.0000                 8.1150

                     10                     11                     12
                     A"                     A"                     A"
 Frequencies --    902.8434               920.7550               926.0407
 Red. masses --      1.7288                 1.3271                 1.5353
 Frc consts  --      0.8303                 0.6629                 0.7757
 IR Inten    --      0.0000                59.3030                 0.0000

                     13                     14                     15
                     A'                     A"                     A'
 Frequencies --    943.3204               969.4269               977.2078
 Red. masses --      1.4251                 1.1927                 1.5062
 Frc consts  --      0.7471                 0.6604                 0.8474
 IR Inten    --      0.0000                 5.1932                 3.1671

                     16                     17                     18
                     A"                     A"                     A'
 Frequencies --   1023.8063              1056.0085              1158.5022
 Red. masses --      1.1201                 1.0947                 2.2108
 Frc consts  --      0.6917                 0.7192                 1.7482
 IR Inten    --      0.0000                47.1962                 5.5546

                     19                     20                     21
                     A'                     A'                     A'
 Frequencies --   1215.4333              1266.4622              1305.6870
 Red. masses --      1.7659                 1.3196                 1.5938
 Frc consts  --      1.5370                 1.2470                 1.6009
 IR Inten    --      0.0000                 2.3116                 0.0000

                     22                     23                     24
                     A'                     A'                     A'
 Frequencies --   1315.4705              1315.8134              1418.5479
 Red. masses --      1.2784                 1.3064                 1.2486
 Frc consts  --      1.3034                 1.3326                 1.4804
 IR Inten    --      4.3967                 0.0005                 0.0000

                     25                     26                     27
                     A'                     A'                     A'
 Frequencies --   1447.9523              1640.8304              1693.6351
 Red. masses --      1.2471                 4.4141                 4.7589
 Frc consts  --      1.5405                 7.0020                 8.0427
 IR Inten    --      3.3150                 0.0000                20.3679

                     28                     29                     30
                     A'                     A'                     A'
 Frequencies --   1700.1946              3128.7639              3129.3080
 Red. masses --      5.2169                 1.0808                 1.0866
 Frc consts  --      8.8851                 6.2334                 6.2695
 IR Inten    --      0.0000                 0.1938                 0.0000

                     31                     32                     33
                     A'                     A'                     A'
 Frequencies --   3135.9691              3139.5445              3142.9048
 Red. masses --      1.0720                 1.0662                 1.0824
 Frc consts  --      6.2111                 6.1920                 6.2995
 IR Inten    --      0.0000                26.9278                 0.0000

                     34                     35                     36
                     A'                     A'                     A'
 Frequencies --   3144.2801              3236.8240              3236.8316
 Red. masses --      1.0881                 1.1158                 1.1158
 Frc consts  --      6.3380                 6.8875                 6.8875
 IR Inten    --     33.5280                 4.4621                18.6876

 - Thermochemistry -
 -------------------
 Temperature   298.150 Kelvin.  Pressure   1.00000 Atm.
 Atom     1 has atomic number  6 and mass  12.00000

 Molecular mass:    80.06260 amu.
 Principal axes and moments of inertia in atomic units:
                           1         2         3
     Eigenvalues --    68.215231359.509441427.72467
           X           -0.44215   0.89694   0.00000
           Y            0.89694   0.44215   0.00000
           Z            0.00000   0.00000   1.00000
 This molecule is an asymmetric top.
 Rotational symmetry number  1.
 Rotational temperatures (Kelvin)      1.26972     0.06371     0.06067
 Rotational constants (GHZ):          26.45657     1.32749     1.26407
 Zero-point vibrational energy     310429.1 (Joules/Mol)
                                   74.19434 (Kcal/Mol)
 Warning -- explicit consideration of   8 degrees of freedom as
           vibrations may cause significant error
 Vibrational temperatures:    147.34   213.53   333.10   371.23   504.62
          (Kelvin)            640.68   779.43   890.94  1021.52  1298.99
                             1324.76  1332.37  1357.23  1394.79  1405.98
                             1473.03  1519.36  1666.83  1748.74  1822.16
                             1878.59  1892.67  1893.16  2040.97  2083.28
                             2360.79  2436.76  2446.20  4501.59  4502.38
                             4511.96  4517.10  4521.94  4523.92  4657.07
                             4657.08

 Zero-point correction=                           0.118236 (Hartree/Particle)
 Thermal correction to Energy=                    0.124958
 Thermal correction to Enthalpy=                  0.125902
 Thermal correction to Gibbs Free Energy=         0.088152
 Sum of electronic and zero-point Energies=           -233.293820
 Sum of electronic and thermal Energies=              -233.287098
 Sum of electronic and thermal Enthalpies=            -233.286153
 Sum of electronic and thermal Free Energies=         -233.323904

                     E (Thermal)             CV                S
                      KCal/Mol        Cal/Mol-Kelvin    Cal/Mol-Kelvin
 Total                   78.412             23.953             79.452
 Electronic               0.000              0.000              0.000
 Translational            0.889              2.981             39.055
 Rotational               0.889              2.981             26.385
 Vibrational             76.635             17.992             14.012
 Vibration     1          0.604              1.947              3.408
 Vibration     2          0.618              1.904              2.692
 Vibration     3          0.653              1.793              1.867
 Vibration     4          0.667              1.749              1.675
 Vibration     5          0.728              1.574              1.163
 Vibration     6          0.805              1.371              0.810
 Vibration     7          0.897              1.158              0.562
 Vibration     8          0.979              0.991              0.418

 Optimization completed.
    -- Stationary point found.
 Normal termination of Gaussian 16 at Sat Jun 20 08:45:08 2020.
