 Gaussian 16, Revision A.03,
 Gaussian 16:  ES64L-G16RevA.03 25-Dec-2016

 ---------------------------
 # opt freq b3lyp/cc-pVDZ 6D
 ---------------------------

 --------------------------------
 sto-6g 6D meta_Lowdin trans_dipo
 --------------------------------
 Symbolic Z-matrix:
 Charge =  0 Multiplicity = 1

 SCF Done:  E(RB3LYP) =  -109.535476377     A.U. after    8 cycles
 SCF Done:  E(RB3LYP) =  -109.535786182     A.U. after    6 cycles
 SCF Done:  E(RB3LYP) =  -109.535788842     A.U. after    5 cycles
 Optimization completed.
    -- Stationary point found.
 Normal termination of Gaussian 16 at Mon Nov 11 16:34:25 2019.

 -------------------------------------------------------------------
 #N Geom=AllCheck Guess=TCheck SCRF=Check GenChk RB3LYP/CC-pVDZ Freq
 -------------------------------------------------------------------

 Structure from the checkpoint file:  "N2_opt.chk"
 --------------------------------
 sto-6g 6D meta_Lowdin trans_dipo
 --------------------------------
 Charge =  0 Multiplicity = 1

                         Standard orientation:
 ---------------------------------------------------------------------
 Center     Atomic      Atomic             Coordinates (Angstroms)
 Number     Number       Type             X           Y           Z
 ---------------------------------------------------------------------
      1          7           0        0.000000    0.000000    0.552322
      2          7           0        0.000000    0.000000   -0.552322
 ---------------------------------------------------------------------

 SCF Done:  E(RB3LYP) =  -109.535788842     A.U. after    1 cycles

 The electronic state is 1-SGG.
 Alpha  occ. eigenvalues --  -14.43561 -14.43395  -1.12138  -0.54991  -0.45910
 Alpha  occ. eigenvalues --   -0.45910  -0.42256
 Alpha virt. eigenvalues --   -0.01946  -0.01946   0.41983   0.61692   0.63575
 Alpha virt. eigenvalues --    0.63575   0.67937   0.78217   0.78217   0.81040
 Alpha virt. eigenvalues --    1.33207   1.48665   1.48665   1.57494   1.57494

 Mulliken charges:
               1
     1  N    0.000000
     2  N    0.000000
 Sum of Mulliken charges =   0.00000

 Dipole moment (field-independent basis, Debye):
    X=              0.0000    Y=              0.0000    Z=              0.0000  Tot=              0.0000
 Quadrupole moment (field-independent basis, Debye-Ang):
   XX=             -9.9475   YY=             -9.9475   ZZ=            -11.5646
   XY=              0.0000   XZ=              0.0000   YZ=              0.0000

  Exact polarizability:   5.945   0.000   5.945   0.000   0.000  13.168
 Approx polarizability:   8.165   0.000   8.165   0.000   0.000  27.146

                      1
                     SGG
 Frequencies --   2454.0429
 Red. masses --     14.0031
 Frc consts  --     49.6864
 IR Inten    --      0.0000

 - Thermochemistry -
 -------------------
 Temperature   298.150 Kelvin.  Pressure   1.00000 Atm.
 Atom     1 has atomic number  7 and mass  14.00307

 Molecular mass:    28.00615 amu.
 Principal axes and moments of inertia in atomic units:
                           1         2         3
     Eigenvalues --     0.00000  30.50952  30.50952
           X            0.00000   1.00000   0.00000
           Y            0.00000   0.00000   1.00000
           Z            1.00000   0.00000   0.00000
 This molecule is a prolate symmetric top.
 Rotational symmetry number  2.
 Rotational temperature (Kelvin)      2.83891
 Rotational constant (GHZ):          59.153382
 Zero-point vibrational energy      14678.4 (Joules/Mol)
                                    3.50823 (Kcal/Mol)
 Vibrational temperatures:   3530.82
          (Kelvin)

 Zero-point correction=                           0.005591 (Hartree/Particle)
 Thermal correction to Energy=                    0.007951
 Thermal correction to Enthalpy=                  0.008895
 Thermal correction to Gibbs Free Energy=        -0.012858
 Sum of electronic and zero-point Energies=           -109.530198
 Sum of electronic and thermal Energies=              -109.527838
 Sum of electronic and thermal Enthalpies=            -109.526893
 Sum of electronic and thermal Free Energies=         -109.548646

                     E (Thermal)             CV                S
                      KCal/Mol        Cal/Mol-Kelvin    Cal/Mol-Kelvin
 Total                    4.989              4.970             45.783
 Electronic               0.000              0.000              0.000
 Translational            0.889              2.981             35.924
 Rotational               0.592              1.987              9.859
 Vibrational              3.508              0.002              0.000

 Optimization completed.
    -- Stationary point found.
 Normal termination of Gaussian 16 at Mon Nov 11 16:34:27 2019.
