 Gaussian 16, Revision A.03,
 Gaussian 16:  ES64L-G16RevA.03 25-Dec-2016

 ----------------------------------------------------
 # opt(z-matrix) freq b3lyp/cc-pVDZ geom=connectivity
 ----------------------------------------------------

 -------------------
 Title Card Required
 -------------------
 Symbolic Z-matrix:
 Charge =  0 Multiplicity = 1

 SCF Done:  E(RB3LYP) =  -545.399068065     A.U. after   13 cycles
 SCF Done:  E(RB3LYP) =  -545.422009256     A.U. after   11 cycles
 SCF Done:  E(RB3LYP) =  -545.425221823     A.U. after   10 cycles
 SCF Done:  E(RB3LYP) =  -545.425283485     A.U. after    8 cycles
 SCF Done:  E(RB3LYP) =  -545.425308350     A.U. after    9 cycles
 SCF Done:  E(RB3LYP) =  -545.426333258     A.U. after   13 cycles
 SCF Done:  E(RB3LYP) =  -545.428414491     A.U. after   13 cycles
 SCF Done:  E(RB3LYP) =  -545.431763329     A.U. after   14 cycles
 SCF Done:  E(RB3LYP) =  -545.429224706     A.U. after   14 cycles
 SCF Done:  E(RB3LYP) =  -545.432810445     A.U. after   12 cycles
 SCF Done:  E(RB3LYP) =  -545.449189901     A.U. after   14 cycles
 SCF Done:  E(RB3LYP) =  -545.450917528     A.U. after   11 cycles
 SCF Done:  E(RB3LYP) =  -545.450636706     A.U. after   14 cycles
 SCF Done:  E(RB3LYP) =  -545.451581290     A.U. after   11 cycles
 SCF Done:  E(RB3LYP) =  -545.451707922     A.U. after   12 cycles
 SCF Done:  E(RB3LYP) =  -545.451972972     A.U. after   11 cycles
 SCF Done:  E(RB3LYP) =  -545.452007138     A.U. after   11 cycles
 SCF Done:  E(RB3LYP) =  -545.452013492     A.U. after    8 cycles
 SCF Done:  E(RB3LYP) =  -545.452014090     A.U. after    8 cycles
 Optimization completed.
    -- Stationary point found.
 Normal termination of Gaussian 16 at Thu Oct 31 22:54:57 2019.

 -------------------------------------------------------------------
 #N Geom=AllCheck Guess=TCheck SCRF=Check GenChk RB3LYP/CC-pVDZ Freq
 -------------------------------------------------------------------

 Structure from the checkpoint file:  "C14H20_opt.chk"
 -------------------
 Title Card Required
 -------------------
 Charge =  0 Multiplicity = 1

                         Standard orientation:
 ---------------------------------------------------------------------
 Center     Atomic      Atomic             Coordinates (Angstroms)
 Number     Number       Type             X           Y           Z
 ---------------------------------------------------------------------
      1          6           0       -5.820522    1.869957   -1.022729
      2          1           0       -6.680691    1.676367   -0.373218
      3          1           0       -6.025570    2.326307   -1.994597
      4          6           0       -4.575579    1.567768   -0.640860
      5          1           0       -3.739988    1.772019   -1.322316
      6          6           0       -4.199182    0.931328    0.675611
      7          1           0       -3.514028    1.600124    1.227253
      8          1           0       -5.109660    0.819511    1.291947
      9          6           0       -3.533292   -0.411913    0.495083
     10          1           0       -4.141925   -1.183094    0.004238
     11          6           0       -2.284286   -0.708203    0.868204
     12          1           0       -1.670644    0.066931    1.346353
     13          6           0       -1.611163   -2.045349    0.670653
     14          1           0       -1.308561   -2.458735    1.649850
     15          1           0       -2.339544   -2.752190    0.233626
     16          6           0       -0.393522   -1.949551   -0.217681
     17          1           0       -0.577884   -1.597476   -1.241290
     18          6           0        0.857175   -2.237027    0.156669
     19          1           0        1.037245   -2.577215    1.185863
     20          6           0        2.076201   -2.128989   -0.728017
     21          1           0        1.780564   -1.810235   -1.740959
     22          1           0        2.527971   -3.136348   -0.828988
     23          6           0        3.120062   -1.189072   -0.173057
     24          1           0        3.510501   -1.436555    0.823565
     25          6           0        3.583758   -0.100678   -0.795478
     26          1           0        3.185839    0.152892   -1.787579
     27          6           0        4.628900    0.837555   -0.240757
     28          1           0        5.502214    0.835637   -0.924003
     29          1           0        4.987688    0.472982    0.735821
     30          6           0        4.133158    2.257676   -0.111761
     31          1           0        3.758938    2.719229   -1.035078
     32          6           0        4.117316    2.967789    1.020719
     33          1           0        4.476417    2.546205    1.965230
     34          1           0        3.746975    3.995889    1.044697
 ---------------------------------------------------------------------

 SCF Done:  E(RB3LYP) =  -545.452014090     A.U. after    1 cycles

 The electronic state is 1-A.
 Alpha  occ. eigenvalues --  -10.19465 -10.19374 -10.19296 -10.19226 -10.19215
 Alpha  occ. eigenvalues --  -10.19115 -10.18708 -10.18634 -10.18629 -10.18587
 Alpha  occ. eigenvalues --  -10.18507 -10.18448 -10.18102 -10.18036  -0.82270
 Alpha  occ. eigenvalues --   -0.81415  -0.79925  -0.77882  -0.75313  -0.72398
 Alpha  occ. eigenvalues --   -0.69135  -0.65703  -0.62415  -0.55923  -0.55445
 Alpha  occ. eigenvalues --   -0.55147  -0.54689  -0.54211  -0.47407  -0.46908
 Alpha  occ. eigenvalues --   -0.45868  -0.44969  -0.44355  -0.43534  -0.42684
 Alpha  occ. eigenvalues --   -0.42347  -0.41069  -0.40159  -0.39204  -0.36948
 Alpha  occ. eigenvalues --   -0.36752  -0.35400  -0.34888  -0.34469  -0.34417
 Alpha  occ. eigenvalues --   -0.34227  -0.34166  -0.26234  -0.25909  -0.25296
 Alpha  occ. eigenvalues --   -0.24881  -0.23938
 Alpha virt. eigenvalues --   -0.00772   0.00499   0.01985   0.03392   0.04680
 Alpha virt. eigenvalues --    0.06435   0.07856   0.07942   0.08362   0.08602
 Alpha virt. eigenvalues --    0.08762   0.09231   0.10075   0.10609   0.11628

 Mulliken charges:
               1
     1  C    0.017486
     2  H    0.006614
     3  H    0.014920
     4  C   -0.081738
     5  H   -0.016699
     6  C    0.097710
     7  H    0.009946
     8  H    0.007711
     9  C   -0.031736
    10  H   -0.028471
    11  C   -0.027215
    12  H   -0.027511
    13  C    0.104216
    14  H    0.005485
    15  H    0.005570
    16  C   -0.029465
    17  H   -0.030700
    18  C   -0.026445
    19  H   -0.029785
    20  C    0.100441
    21  H   -0.007589
    22  H    0.027279
    23  C   -0.027756
    24  H   -0.029421
    25  C   -0.030624
    26  H   -0.028947
    27  C    0.093536
    28  H    0.029924
    29  H   -0.006346
    30  C   -0.082304
    31  H   -0.015957
    32  C    0.017211
    33  H    0.006355
    34  H    0.014307
 Sum of Mulliken charges =   0.00000

 Dipole moment (field-independent basis, Debye):
    X=              0.3376    Y=             -0.3622    Z=             -0.0448  Tot=              0.4971
 Quadrupole moment (field-independent basis, Debye-Ang):
   XX=            -87.1365   YY=            -88.2204   ZZ=            -85.2551
   XY=             -0.8411   XZ=             -0.1654   YZ=             -1.6129

  Exact polarizability: 205.918 -11.046 153.208  13.330  -4.168 132.729
 Approx polarizability: 260.128 -15.133 204.726  23.278  -9.821 206.046

                      1                      2                      3
                      A                      A                      A
 Frequencies --     11.9180                26.8393                31.0555
 Red. masses --      4.6805                 3.1833                 3.5100
 Frc consts  --      0.0004                 0.0014                 0.0020
 IR Inten    --      0.0027                 0.0622                 0.0211

                      4                      5                      6
                      A                      A                      A
 Frequencies --     62.0314                68.5784                82.0209
 Red. masses --      2.8256                 3.0247                 2.5244
 Frc consts  --      0.0064                 0.0084                 0.0100
 IR Inten    --      0.0431                 0.1658                 0.0340

                      7                      8                      9
                      A                      A                      A
 Frequencies --     96.4763               112.7403               138.5539
 Red. masses --      2.9437                 2.3608                 2.0331
 Frc consts  --      0.0161                 0.0177                 0.0230
 IR Inten    --      0.0485                 0.1375                 0.3552

                     10                     11                     12
                      A                      A                      A
 Frequencies --    155.6565               178.1178               223.3211
 Red. masses --      2.0423                 2.3183                 2.3417
 Frc consts  --      0.0292                 0.0433                 0.0688
 IR Inten    --      0.1466                 0.2393                 0.2304

                     13                     14                     15
                      A                      A                      A
 Frequencies --    248.2280               273.1047               297.7457
 Red. masses --      2.8384                 2.9051                 3.4907
 Frc consts  --      0.1030                 0.1277                 0.1823
 IR Inten    --      1.2376                 1.9968                 1.8314

                     16                     17                     18
                      A                      A                      A
 Frequencies --    370.2952               372.0810               378.1115
 Red. masses --      2.6372                 2.3423                 2.1500
 Frc consts  --      0.2131                 0.1911                 0.1811
 IR Inten    --      2.9979                 1.1924                 1.8232

                     19                     20                     21
                      A                      A                      A
 Frequencies --    420.6359               442.9682               496.5837
 Red. masses --      2.3082                 2.0499                 2.2621
 Frc consts  --      0.2406                 0.2370                 0.3287
 IR Inten    --      3.1057                 1.6628                 0.8524

                     22                     23                     24
                      A                      A                      A
 Frequencies --    513.9068               544.8513               644.1729
 Red. masses --      2.2277                 2.3052                 1.4784
 Frc consts  --      0.3466                 0.4032                 0.3614
 IR Inten    --      1.9547                 0.6081                10.8886

                     25                     26                     27
                      A                      A                      A
 Frequencies --    662.3341               795.5413               803.8013
 Red. masses --      1.5796                 1.6338                 1.5975
 Frc consts  --      0.4083                 0.6092                 0.6081
 IR Inten    --      7.3159                 0.9172                 1.5668

                     28                     29                     30
                      A                      A                      A
 Frequencies --    839.6067               875.8214               900.1944
 Red. masses --      1.9323                 1.7471                 1.6990
 Frc consts  --      0.8025                 0.7896                 0.8112
 IR Inten    --      0.2922                 0.2065                16.0683

                     31                     32                     33
                      A                      A                      A
 Frequencies --    914.1123               924.0009               933.7927
 Red. masses --      1.5740                 1.7569                 1.3822
 Frc consts  --      0.7749                 0.8838                 0.7101
 IR Inten    --      1.8431                 2.1008                34.3480

                     34                     35                     36
                      A                      A                      A
 Frequencies --    936.1533               942.2004               953.1671
 Red. masses --      1.4194                 1.9024                 2.1003
 Frc consts  --      0.7329                 0.9950                 1.1243
 IR Inten    --     25.5334                 6.7113                 1.6462

                     37                     38                     39
                      A                      A                      A
 Frequencies --    992.4456              1002.7572              1004.8947
 Red. masses --      1.1868                 1.1220                 1.0997
 Frc consts  --      0.6887                 0.6647                 0.6543
 IR Inten    --      5.8836                25.6975                27.1983

                     40                     41                     42
                      A                      A                      A
 Frequencies --   1020.7586              1026.9433              1028.2199
 Red. masses --      1.4477                 1.1682                 1.2590
 Frc consts  --      0.8887                 0.7259                 0.7842
 IR Inten    --     25.1701                 5.4491                 6.6493

                     43                     44                     45
                      A                      A                      A
 Frequencies --   1050.7087              1061.3380              1075.0968
 Red. masses --      3.4734                 2.0208                 1.8694
 Frc consts  --      2.2593                 1.3412                 1.2731
 IR Inten    --      2.9268                 4.3626                13.8169

                     46                     47                     48
                      A                      A                      A
 Frequencies --   1077.3938              1104.2118              1122.5830
 Red. masses --      2.5324                 2.4052                 1.5425
 Frc consts  --      1.7320                 1.7279                 1.1453
 IR Inten    --      3.4314                15.1803                 1.5287

                     49                     50                     51
                      A                      A                      A
 Frequencies --   1155.7698              1187.8367              1210.3632
 Red. masses --      2.3033                 1.6172                 1.3641
 Frc consts  --      1.8128                 1.3444                 1.1774
 IR Inten    --      0.1482                 1.8292                 0.8218

                     52                     53                     54
                      A                      A                      A
 Frequencies --   1227.5503              1241.7190              1262.0183
 Red. masses --      1.2501                 1.2267                 1.2532
 Frc consts  --      1.1098                 1.1144                 1.1760
 IR Inten    --      0.5445                 0.6398                25.9016

                     55                     56                     57
                      A                      A                      A
 Frequencies --   1271.7061              1287.9148              1299.2493
 Red. masses --      1.2664                 1.2830                 1.2943
 Frc consts  --      1.2067                 1.2539                 1.2872
 IR Inten    --     12.6327                 2.7380                 0.4834

                     58                     59                     60
                      A                      A                      A
 Frequencies --   1310.6874              1313.8856              1317.1691
 Red. masses --      1.2318                 1.2867                 1.2621
 Frc consts  --      1.2467                 1.3087                 1.2902
 IR Inten    --      0.7592                 0.2345                 0.1097

                     61                     62                     63
                      A                      A                      A
 Frequencies --   1319.1223              1323.0460              1338.2282
 Red. masses --      1.2979                 1.2653                 1.3192
 Frc consts  --      1.3307                 1.3050                 1.3919
 IR Inten    --      0.2036                 0.3406                 1.7847

                     64                     65                     66
                      A                      A                      A
 Frequencies --   1352.4431              1369.1365              1427.9574
 Red. masses --      1.4304                 1.4738                 1.1703
 Frc consts  --      1.5416                 1.6277                 1.4059
 IR Inten    --      2.1763                 0.5596                 1.8335

                     67                     68                     69
                      A                      A                      A
 Frequencies --   1431.4428              1440.9516              1441.9018
 Red. masses --      1.1709                 1.0953                 1.1005
 Frc consts  --      1.4135                 1.3399                 1.3480
 IR Inten    --      0.9743                 8.4126                 3.9034

                     70                     71                     72
                      A                      A                      A
 Frequencies --   1443.1352              1444.1965              1707.9706
 Red. masses --      1.1203                 1.1175                 5.0927
 Frc consts  --      1.3746                 1.3733                 8.7530
 IR Inten    --      2.4756                 4.0997                12.0512

                     73                     74                     75
                      A                      A                      A
 Frequencies --   1711.2306              1734.6051              1744.1939
 Red. masses --      4.9891                 6.5698                 6.3907
 Frc consts  --      8.6077                11.6467                11.4548
 IR Inten    --     10.6541                 0.3409                 0.3719

                     76                     77                     78
                      A                      A                      A
 Frequencies --   1750.8309              2979.1555              2979.5050
 Red. masses --      6.4309                 1.0685                 1.0686
 Frc consts  --     11.6148                 5.5874                 5.5895
 IR Inten    --      0.3645                38.3667                34.4914

                     79                     80                     81
                      A                      A                      A
 Frequencies --   3005.4548              3007.0942              3047.0557
 Red. masses --      1.0584                 1.0584                 1.1021
 Frc consts  --      5.6325                 5.6388                 6.0291
 IR Inten    --     29.7935                26.5471                21.1304

                     82                     83                     84
                      A                      A                      A
 Frequencies --   3049.6415              3064.5328              3066.0178
 Red. masses --      1.1022                 1.0912                 1.0918
 Frc consts  --      6.0397                 6.0377                 6.0469
 IR Inten    --     14.6506                16.1882                 0.0716

                     85                     86                     87
                      A                      A                      A
 Frequencies --   3112.4432              3115.7439              3119.8354
 Red. masses --      1.0896                 1.0897                 1.0873
 Frc consts  --      6.2190                 6.2325                 6.2352
 IR Inten    --      5.2146                 3.7044                11.5251

                     88                     89                     90
                      A                      A                      A
 Frequencies --   3120.2669              3124.1103              3125.0583
 Red. masses --      1.0905                 1.0766                 1.0827
 Frc consts  --      6.2557                 6.1909                 6.2297
 IR Inten    --      8.0739                 7.7848                74.3636

                     91                     92                     93
                      A                      A                      A
 Frequencies --   3125.4169              3125.8734              3134.3353
 Red. masses --      1.0850                 1.0633                 1.0792
 Frc consts  --      6.2446                 6.1214                 6.2464
 IR Inten    --     32.7017                21.5008                 5.5142

                     94                     95                     96
                      A                      A                      A
 Frequencies --   3136.6493              3222.6134              3223.5574
 Red. masses --      1.0888                 1.1154                 1.1156
 Frc consts  --      6.3114                 6.8247                 6.8300
 IR Inten    --      6.4752                16.2451                16.4611

 - Thermochemistry -
 -------------------
 Temperature   298.150 Kelvin.  Pressure   1.00000 Atm.
 Atom     1 has atomic number  6 and mass  12.00000

 Molecular mass:   188.15650 amu.
 Principal axes and moments of inertia in atomic units:
                           1         2         3
     Eigenvalues --  2423.498328971.14465**********
           X            1.00000  -0.00061   0.00211
           Y            0.00061   1.00000  -0.00008
           Z           -0.00211   0.00008   1.00000
 This molecule is an asymmetric top.
 Rotational symmetry number  1.
 Warning -- assumption of classical behavior for rotation
           may cause significant error
 Rotational temperatures (Kelvin)      0.03574     0.00965     0.00811
 Rotational constants (GHZ):           0.74468     0.20117     0.16905
 Zero-point vibrational energy     778701.3 (Joules/Mol)
                                  186.11408 (Kcal/Mol)
 Warning -- explicit consideration of  23 degrees of freedom as
           vibrations may cause significant error
 Vibrational temperatures:     17.15    38.62    44.68    89.25    98.67
          (Kelvin)            118.01   138.81   162.21   199.35   223.96
                              256.27   321.31   357.14   392.94   428.39
                              532.77   535.34   544.02   605.20   637.33
                              714.47   739.40   783.92   926.82   952.95
                             1144.61  1156.49  1208.01  1260.11  1295.18
                             1315.20  1329.43  1343.52  1346.92  1355.62
                             1371.39  1427.91  1442.74  1445.82  1468.64
                             1477.54  1479.38  1511.74  1527.03  1546.82
                             1550.13  1588.71  1615.15  1662.89  1709.03
                             1741.44  1766.17  1786.56  1815.76  1829.70
                             1853.02  1869.33  1885.79  1890.39  1895.11
                             1897.92  1903.57  1925.41  1945.86  1969.88
                             2054.51  2059.53  2073.21  2074.58  2076.35
                             2077.88  2457.39  2462.08  2495.71  2509.51
                             2519.06  4286.34  4286.84  4324.18  4326.54
                             4384.03  4387.75  4409.18  4411.32  4478.11
                             4482.86  4488.75  4489.37  4494.90  4496.26
                             4496.78  4497.43  4509.61  4512.94  4636.62
                             4637.98

 Zero-point correction=                           0.296592 (Hartree/Particle)
 Thermal correction to Energy=                    0.313435
 Thermal correction to Enthalpy=                  0.314379
 Thermal correction to Gibbs Free Energy=         0.248250
 Sum of electronic and zero-point Energies=           -545.155422
 Sum of electronic and thermal Energies=              -545.138579
 Sum of electronic and thermal Enthalpies=            -545.137635
 Sum of electronic and thermal Free Energies=         -545.203764

                     E (Thermal)             CV                S
                      KCal/Mol        Cal/Mol-Kelvin    Cal/Mol-Kelvin
 Total                  196.683             60.276            139.180
 Electronic               0.000              0.000              0.000
 Translational            0.889              2.981             41.602
 Rotational               0.889              2.981             33.806
 Vibrational            194.906             54.315             63.772
 Vibration     1          0.593              1.987              7.662
 Vibration     2          0.593              1.984              6.050
 Vibration     3          0.594              1.983              5.761
 Vibration     4          0.597              1.972              4.391
 Vibration     5          0.598              1.969              4.194
 Vibration     6          0.600              1.961              3.842
 Vibration     7          0.603              1.952              3.524
 Vibration     8          0.607              1.939              3.221
 Vibration     9          0.614              1.915              2.824
 Vibration    10          0.620              1.896              2.602
 Vibration    11          0.629              1.869              2.348
 Vibration    12          0.649              1.806              1.932
 Vibration    13          0.662              1.766              1.743
 Vibration    14          0.676              1.723              1.576
 Vibration    15          0.691              1.678              1.430
 Vibration    16          0.742              1.533              1.079
 Vibration    17          0.744              1.529              1.071
 Vibration    18          0.748              1.517              1.047
 Vibration    19          0.783              1.425              0.890
 Vibration    20          0.803              1.376              0.817
 Vibration    21          0.852              1.258              0.667
 Vibration    22          0.869              1.219              0.624
 Vibration    23          0.900              1.151              0.555

 Optimization completed.
    -- Stationary point found.
 Normal termination of Gaussian 16 at Thu Oct 31 22:57:57 2019.
