 Gaussian 16, Revision A.03,
 Gaussian 16:  ES64L-G16RevA.03 25-Dec-2016

 ------------------------
 # opt freq b3lyp/cc-pVDZ
 ------------------------

 ---------
 6-31g nt3
 ---------
 Symbolic Z-matrix:
 Charge =  0 Multiplicity = 1

 SCF Done:  E(RB3LYP) =  -158.449287650     A.U. after   11 cycles
 SCF Done:  E(RB3LYP) =  -158.458240494     A.U. after    9 cycles
 SCF Done:  E(RB3LYP) =  -158.458741600     A.U. after    8 cycles
 SCF Done:  E(RB3LYP) =  -158.458770504     A.U. after    7 cycles
 Optimization completed.
    -- Stationary point found.
 Normal termination of Gaussian 16 at Fri Jan 10 08:35:50 2020.

 -------------------------------------------------------------------
 #N Geom=AllCheck Guess=TCheck SCRF=Check GenChk RB3LYP/CC-pVDZ Freq
 -------------------------------------------------------------------

 Structure from the checkpoint file:  "C4H10-opt.chk"
 ---------
 6-31g nt3
 ---------
 Charge =  0 Multiplicity = 1

                         Standard orientation:
 ---------------------------------------------------------------------
 Center     Atomic      Atomic             Coordinates (Angstroms)
 Number     Number       Type             X           Y           Z
 ---------------------------------------------------------------------
      1          6           0       -1.961498    0.120188   -0.000009
      2          1           0       -2.111391    0.756805   -0.889144
      3          1           0       -2.111488    0.756631    0.889232
      4          1           0       -2.755836   -0.644112   -0.000129
      5          6           0       -0.568486   -0.513712    0.000011
      6          1           0       -0.461800   -1.172304    0.882442
      7          1           0       -0.461788   -1.172300   -0.882419
      8          6           0        0.568486    0.513712    0.000012
      9          1           0        0.461800    1.172290    0.882452
     10          1           0        0.461787    1.172314   -0.882409
     11          6           0        1.961498   -0.120188   -0.000010
     12          1           0        2.111427   -0.756717   -0.889201
     13          1           0        2.755836    0.644112   -0.000021
     14          1           0        2.111452   -0.756719    0.889175
 ---------------------------------------------------------------------

 SCF Done:  E(RB3LYP) =  -158.458770504     A.U. after    1 cycles

 The electronic state is 1-A.
 Alpha  occ. eigenvalues --  -10.18037 -10.18020 -10.17603 -10.17602  -0.79070
 Alpha  occ. eigenvalues --   -0.72062  -0.62711  -0.57195  -0.46348  -0.42251
 Alpha  occ. eigenvalues --   -0.41628  -0.40637  -0.36555  -0.34667  -0.33255
 Alpha  occ. eigenvalues --   -0.32078  -0.31934
 Alpha virt. eigenvalues --    0.06106   0.08040   0.09546   0.10093   0.13754
 Alpha virt. eigenvalues --    0.14039   0.15117   0.15323   0.16076   0.17010
 Alpha virt. eigenvalues --    0.22634   0.23278   0.24982   0.40202   0.40611

 Mulliken charges:
               1
     1  C   -0.010595
     2  H    0.016004
     3  H    0.016006
     4  H    0.012094
     5  C   -0.041839
     6  H    0.004165
     7  H    0.004165
     8  C   -0.041839
     9  H    0.004165
    10  H    0.004165
    11  C   -0.010595
    12  H    0.016005
    13  H    0.012094
    14  H    0.016005
 Sum of Mulliken charges =   0.00000

 Dipole moment (field-independent basis, Debye):
    X=              0.0000    Y=              0.0000    Z=              0.0000  Tot=              0.0000
 Quadrupole moment (field-independent basis, Debye-Ang):
   XX=            -29.1190   YY=            -28.5833   ZZ=            -28.0755
   XY=              0.2756   XZ=              0.0000   YZ=              0.0000

  Exact polarizability:  54.379  -0.105  45.028   0.000   0.000  43.340
 Approx polarizability:  62.234   0.099  61.948   0.000   0.000  61.910

                      1                      2                      3
                      A                      A                      A
 Frequencies --    124.6486               231.5876               258.3745
 Red. masses --      1.9154                 1.0601                 2.2361
 Frc consts  --      0.0175                 0.0335                 0.0880
 IR Inten    --      0.0047                 0.0004                 0.0548

                      4                      5                      6
                      A                      A                      A
 Frequencies --    270.1544               424.7881               742.3496
 Red. masses --      1.1229                 2.7080                 1.0704
 Frc consts  --      0.0483                 0.2879                 0.3475
 IR Inten    --      0.0000                 0.0000                 3.4833

                      7                      8                      9
                      A                      A                      A
 Frequencies --    810.0142               845.2818               955.6762
 Red. masses --      1.1265                 1.9367                 1.1245
 Frc consts  --      0.4355                 0.8153                 0.6051
 IR Inten    --      0.0000                 0.0000                 1.1847

                     10                     11                     12
                      A                      A                      A
 Frequencies --    976.8667              1024.3406              1074.6627
 Red. masses --      1.2411                 3.1833                 2.2446
 Frc consts  --      0.6978                 1.9680                 1.5273
 IR Inten    --      4.8859                 0.0123                 0.0000

                     13                     14                     15
                      A                      A                      A
 Frequencies --   1163.7845              1197.5142              1277.8975
 Red. masses --      2.0900                 1.7658                 1.2476
 Frc consts  --      1.6678                 1.4920                 1.2004
 IR Inten    --      0.0000                 0.0000                 0.0438

                     16                     17                     18
                      A                      A                      A
 Frequencies --   1310.9848              1321.1461              1387.9170
 Red. masses --      1.3509                 1.0709                 1.4405
 Frc consts  --      1.3680                 1.1013                 1.6349
 IR Inten    --      7.1870                 0.0000                 0.0000

                     19                     20                     21
                      A                      A                      A
 Frequencies --   1398.4566              1399.4841              1460.1753
 Red. masses --      1.3610                 1.2611                 1.0590
 Frc consts  --      1.5682                 1.4553                 1.3304
 IR Inten    --      0.0000                 1.7209                 0.0000

                     22                     23                     24
                      A                      A                      A
 Frequencies --   1463.3062              1469.0479              1470.8482
 Red. masses --      1.0475                 1.0420                 1.0334
 Frc consts  --      1.3215                 1.3250                 1.3172
 IR Inten    --      1.8537                 0.0000                11.4957

                     25                     26                     27
                      A                      A                      A
 Frequencies --   1478.5335              1485.0819              3000.9784
 Red. masses --      1.0774                 1.0892                 1.0581
 Frc consts  --      1.3876                 1.4153                 5.6143
 IR Inten    --      0.0000                 4.6163                 0.0000

                     28                     29                     30
                      A                      A                      A
 Frequencies --   3007.6701              3018.4819              3019.9459
 Red. masses --      1.0604                 1.0363                 1.0376
 Frc consts  --      5.6518                 5.5631                 5.5754
 IR Inten    --     58.3551                74.0002                 0.0000

                     31                     32                     33
                      A                      A                      A
 Frequencies --   3023.0218              3045.6893              3085.7769
 Red. masses --      1.0995                 1.1040                 1.1024
 Frc consts  --      5.9203                 6.0339                 6.1848
 IR Inten    --      0.0000                29.1381                 0.0000

                     34                     35                     36
                      A                      A                      A
 Frequencies --   3089.2662              3093.6168              3094.3806
 Red. masses --      1.1022                 1.1015                 1.1013
 Frc consts  --      6.1975                 6.2113                 6.2128
 IR Inten    --    110.7627                 0.0001                77.3023

 - Thermochemistry -
 -------------------
 Temperature   298.150 Kelvin.  Pressure   1.00000 Atm.
 Atom     1 has atomic number  6 and mass  12.00000

 Molecular mass:    58.07825 amu.
 Principal axes and moments of inertia in atomic units:
                           1         2         3
     Eigenvalues --    77.44863 501.96998 534.23410
           X            0.99998  -0.00564   0.00000
           Y            0.00564   0.99998   0.00000
           Z            0.00000   0.00000   1.00000
 This molecule is an asymmetric top.
 Rotational symmetry number  1.
 Rotational temperatures (Kelvin)      1.11834     0.17255     0.16213
 Rotational constants (GHZ):          23.30243     3.59532     3.37818
 Zero-point vibrational energy     343936.8 (Joules/Mol)
                                   82.20288 (Kcal/Mol)
 Warning -- explicit consideration of   5 degrees of freedom as
           vibrations may cause significant error
 Vibrational temperatures:    179.34   333.20   371.74   388.69   611.18
          (Kelvin)           1068.08  1165.43  1216.17  1375.00  1405.49
                             1473.80  1546.20  1674.43  1722.96  1838.61
                             1886.21  1900.83  1996.90  2012.07  2013.55
                             2100.87  2105.37  2113.63  2116.22  2127.28
                             2136.70  4317.74  4327.37  4342.92  4345.03
                             4349.45  4382.07  4439.74  4444.77  4451.02
                             4452.12

 Zero-point correction=                           0.130999 (Hartree/Particle)
 Thermal correction to Energy=                    0.136761
 Thermal correction to Enthalpy=                  0.137706
 Thermal correction to Gibbs Free Energy=         0.103027
 Sum of electronic and zero-point Energies=           -158.327772
 Sum of electronic and thermal Energies=              -158.322009
 Sum of electronic and thermal Enthalpies=            -158.321065
 Sum of electronic and thermal Free Energies=         -158.355743

                     E (Thermal)             CV                S
                      KCal/Mol        Cal/Mol-Kelvin    Cal/Mol-Kelvin
 Total                   85.819             19.723             72.986
 Electronic               0.000              0.000              0.000
 Translational            0.889              2.981             38.098
 Rotational               0.889              2.981             24.544
 Vibrational             84.042             13.761             10.344
 Vibration     1          0.610              1.928              3.027
 Vibration     2          0.653              1.793              1.867
 Vibration     3          0.667              1.749              1.673
 Vibration     4          0.674              1.728              1.595
 Vibration     5          0.787              1.416              0.876

 Optimization completed.
    -- Stationary point found.
 Normal termination of Gaussian 16 at Fri Jan 10 08:36:57 2020.
