 Gaussian 16, Revision A.03,
 Gaussian 16:  ES64L-G16RevA.03 25-Dec-2016

 ----------------------------------
 # opt(z-matrix) freq b3lyp/cc-pvdz
 ----------------------------------

 -------------------
 Title Card Required
 -------------------
 Symbolic Z-matrix:
 Charge =  0 Multiplicity = 1

 SCF Done:  E(RB3LYP) =  -26.6087420792     A.U. after    8 cycles
 SCF Done:  E(RB3LYP) =  -26.6095563515     A.U. after    7 cycles
 Optimization completed.
    -- Stationary point found.
 Normal termination of Gaussian 16 at Wed Jan  8 10:07:42 2020.

 -------------------------------------------------------------------
 #N Geom=AllCheck Guess=TCheck SCRF=Check GenChk RB3LYP/CC-pVDZ Freq
 -------------------------------------------------------------------

 Structure from the checkpoint file:  "BH3-opt.chk"
 -------------------
 Title Card Required
 -------------------
 Charge =  0 Multiplicity = 1

                         Standard orientation:
 ---------------------------------------------------------------------
 Center     Atomic      Atomic             Coordinates (Angstroms)
 Number     Number       Type             X           Y           Z
 ---------------------------------------------------------------------
      1          5           0        0.000000    0.000000    0.000000
      2          1           0        0.000000    1.204310    0.000000
      3          1           0        1.042963   -0.602155    0.000000
      4          1           0       -1.042963   -0.602155    0.000000
 ---------------------------------------------------------------------

 SCF Done:  E(RB3LYP) =  -26.6095563515     A.U. after    1 cycles

 The electronic state is 1-A1'.
 Alpha  occ. eigenvalues --   -6.78563  -0.51466  -0.35245  -0.35245
 Alpha virt. eigenvalues --   -0.07737   0.12167   0.14310   0.14310   0.25092
 Alpha virt. eigenvalues --    0.25092   0.31949   0.35462   0.59783   0.59783
 Alpha virt. eigenvalues --    0.64761   0.65826   0.65826   1.03074   1.13131

 Mulliken charges:
               1
     1  B    0.038414
     2  H   -0.012805
     3  H   -0.012805
     4  H   -0.012805
 Sum of Mulliken charges =   0.00000

 Dipole moment (field-independent basis, Debye):
    X=              0.0000    Y=              0.0000    Z=              0.0000  Tot=              0.0000
 Quadrupole moment (field-independent basis, Debye-Ang):
   XX=             -9.1681   YY=             -9.1681   ZZ=             -7.1587
   XY=              0.0000   XZ=              0.0000   YZ=              0.0000

  Exact polarizability:  17.669   0.000  17.668   0.000   0.000   9.875
 Approx polarizability:  20.634   0.000  20.634   0.000   0.000  13.586

                      1                      2                      3
                     A2"                    E'                     E'
 Frequencies --   1145.5360              1176.2418              1176.2421
 Red. masses --      1.2531                 1.1077                 1.1077
 Frc consts  --      0.9688                 0.9030                 0.9030
 IR Inten    --     75.5446                12.0334                12.0340

                      4                      5                      6
                     A1'                    E'                     E'
 Frequencies --   2547.7035              2684.8891              2684.8899
 Red. masses --      1.0078                 1.1267                 1.1267
 Frc consts  --      3.8542                 4.7855                 4.7855
 IR Inten    --      0.0000               132.6254               132.6261

 - Thermochemistry -
 -------------------
 Temperature   298.150 Kelvin.  Pressure   1.00000 Atm.
 Atom     1 has atomic number  5 and mass  11.00931

 Molecular mass:    14.03278 amu.
 Principal axes and moments of inertia in atomic units:
                           1         2         3
     Eigenvalues --     7.82980   7.82980  15.65960
           X           -0.23745   0.97140   0.00000
           Y            0.97140   0.23745   0.00000
           Z            0.00000   0.00000   1.00000
 This molecule is an oblate symmetric top.
 Rotational symmetry number  6.
 Rotational temperatures (Kelvin)     11.06209    11.06209     5.53104
 Rotational constants (GHZ):         230.49647   230.49647   115.24824
 Zero-point vibrational energy      68279.9 (Joules/Mol)
                                   16.31928 (Kcal/Mol)
 Vibrational temperatures:   1648.17  1692.35  1692.35  3665.58  3862.96
          (Kelvin)           3862.96

 Zero-point correction=                           0.026006 (Hartree/Particle)
 Thermal correction to Energy=                    0.028897
 Thermal correction to Enthalpy=                  0.029841
 Thermal correction to Gibbs Free Energy=         0.008425
 Sum of electronic and zero-point Energies=            -26.583550
 Sum of electronic and thermal Energies=               -26.580660
 Sum of electronic and thermal Enthalpies=             -26.579715
 Sum of electronic and thermal Free Energies=          -26.601131

                     E (Thermal)             CV                S
                      KCal/Mol        Cal/Mol-Kelvin    Cal/Mol-Kelvin
 Total                   18.133              6.650             45.073
 Electronic               0.000              0.000              0.000
 Translational            0.889              2.981             33.864
 Rotational               0.889              2.981             11.065
 Vibrational             16.356              0.688              0.143

 Optimization completed.
    -- Stationary point found.
 Normal termination of Gaussian 16 at Wed Jan  8 10:07:45 2020.
