 Gaussian 16, Revision A.03,
 Gaussian 16:  ES64L-G16RevA.03 25-Dec-2016

 ----------------------------------
 # opt(z-matrix) freq b3lyp/cc-pvdz
 ----------------------------------

 -------
 cc-pVDZ
 -------
 Symbolic Z-matrix:
 Charge =  0 Multiplicity = 1

 SCF Done:  E(RB3LYP) =  -40.4861189608     A.U. after    9 cycles
 SCF Done:  E(RB3LYP) =  -40.5152537583     A.U. after    9 cycles
 SCF Done:  E(RB3LYP) =  -40.5163486790     A.U. after    8 cycles
 Optimization completed.
    -- Stationary point found.
 Normal termination of Gaussian 16 at Mon Jun 29 15:32:22 2020.

 -------------------------------------------------------------------
 #N Geom=AllCheck Guess=TCheck SCRF=Check GenChk RB3LYP/CC-pVDZ Freq
 -------------------------------------------------------------------

 Structure from the checkpoint file:  "CH4_opt.chk"
 -------
 cc-pVDZ
 -------
 Charge =  0 Multiplicity = 1

                         Standard orientation:
 ---------------------------------------------------------------------
 Center     Atomic      Atomic             Coordinates (Angstroms)
 Number     Number       Type             X           Y           Z
 ---------------------------------------------------------------------
      1          6           0        0.000000    0.000000    0.000000
      2          1           0        0.635212    0.635212    0.635212
      3          1           0       -0.635212   -0.635212    0.635212
      4          1           0       -0.635212    0.635212   -0.635212
      5          1           0        0.635212   -0.635212   -0.635212
 ---------------------------------------------------------------------

 SCF Done:  E(RB3LYP) =  -40.5163486790     A.U. after    1 cycles

 The electronic state is 1-A1.
 Alpha  occ. eigenvalues --  -10.17476  -0.69019  -0.38841  -0.38841  -0.38841
 Alpha virt. eigenvalues --    0.07296   0.14279   0.14279   0.14279   0.41372
 Alpha virt. eigenvalues --    0.41372   0.41372   0.64981   0.64981   0.64981
 Alpha virt. eigenvalues --    0.67672   0.90080   0.90080   1.04145   1.41462

 Mulliken charges:
               1
     1  C   -0.127828
     2  H    0.031957
     3  H    0.031957
     4  H    0.031957
     5  H    0.031957
 Sum of Mulliken charges =   0.00000

 Dipole moment (field-independent basis, Debye):
    X=              0.0000    Y=              0.0000    Z=              0.0000  Tot=              0.0000
 Quadrupole moment (field-independent basis, Debye-Ang):
   XX=             -8.3290   YY=             -8.3290   ZZ=             -8.3290
   XY=              0.0000   XZ=              0.0000   YZ=              0.0000

  Exact polarizability:  13.415   0.000  13.415   0.000   0.000  13.415
 Approx polarizability:  16.320   0.000  16.320   0.000   0.000  16.320

                      1                      2                      3
                     T2                     T2                     T2
 Frequencies --   1310.4597              1310.4597              1310.4597
 Red. masses --      1.1791                 1.1791                 1.1791
 Frc consts  --      1.1930                 1.1930                 1.1930
 IR Inten    --     11.9669                11.9669                11.9669

                      4                      5                      6
                      E                      E                     A1
 Frequencies --   1531.2627              1531.2627              3024.5530
 Red. masses --      1.0078                 1.0078                 1.0078
 Frc consts  --      1.3923                 1.3923                 5.4320
 IR Inten    --      0.0000                 0.0000                 0.0000

                      7                      8                      9
                     T2                     T2                     T2
 Frequencies --   3145.9653              3145.9653              3145.9653
 Red. masses --      1.1016                 1.1016                 1.1016
 Frc consts  --      6.4235                 6.4235                 6.4235
 IR Inten    --     20.9806                20.9806                20.9806

 - Thermochemistry -
 -------------------
 Temperature   298.150 Kelvin.  Pressure   1.00000 Atm.
 Atom     1 has atomic number  6 and mass  12.00000

 Molecular mass:    16.03130 amu.
 Principal axes and moments of inertia in atomic units:
                           1         2         3
     Eigenvalues --    11.61744  11.61744  11.61744
           X            0.97862   0.00000   0.20566
           Y           -0.20566   0.00000   0.97862
           Z            0.00000   1.00000   0.00000
 This molecule is a spherical top.
 Rotational symmetry number 12.
 Rotational temperatures (Kelvin)      7.45551     7.45551     7.45551
 Rotational constants (GHZ):         155.34752   155.34752   155.34752
 Zero-point vibrational energy     116374.8 (Joules/Mol)
                                   27.81425 (Kcal/Mol)
 Vibrational temperatures:   1885.46  1885.46  1885.46  2203.15  2203.15
          (Kelvin)           4351.66  4526.34  4526.34  4526.34

 Zero-point correction=                           0.044325 (Hartree/Particle)
 Thermal correction to Energy=                    0.047198
 Thermal correction to Enthalpy=                  0.048142
 Thermal correction to Gibbs Free Energy=         0.026982
 Sum of electronic and zero-point Energies=            -40.472024
 Sum of electronic and thermal Energies=               -40.469150
 Sum of electronic and thermal Enthalpies=             -40.468206
 Sum of electronic and thermal Free Energies=          -40.489367

                     E (Thermal)             CV                S
                      KCal/Mol        Cal/Mol-Kelvin    Cal/Mol-Kelvin
 Total                   29.617              6.525             44.536
 Electronic               0.000              0.000              0.000
 Translational            0.889              2.981             34.261
 Rotational               0.889              2.981             10.175
 Vibrational             27.840              0.564              0.099

 Optimization completed.
    -- Stationary point found.
 Normal termination of Gaussian 16 at Mon Jun 29 15:32:29 2020.
